21
 energy: -37.500942243648 gnorm: 0.000400372621 xtb: 6.6.1 (8d0f1dd)
N            1.97664639879005        3.43420940704825        0.13765723511322
C            1.31260818557544        2.27160660564634        0.12983901441995
N            2.03511939731998        1.15398085506395        0.04994594084149
C            1.37290464137416        0.00437624582908        0.04224956115793
C            2.06707920464361       -1.21034263383700       -0.03975172528521
C            1.37933951015199       -2.40347443495034       -0.04767181935808
C           -0.00281499452678       -2.41127131688907        0.02532907667153
C           -0.70486447369956       -1.20917439255584        0.10726768341286
C           -2.11433013473945       -1.12599918151826        0.18509616081899
C           -2.69489781680553        0.11020662922206        0.26187130399728
N           -2.00622201965262        1.24976009774368        0.26776508338796
C           -0.69583866820565        1.20474456942180        0.19660819010235
N           -0.01553955947988        2.33487209263246        0.20263291580001
N           -0.00746358444246       -0.02709738445849        0.11426021620481
H            2.97843516473400        3.42869978738882        0.08521056560190
H            1.45378745117116        4.28849620621235        0.19800160889265
H            3.14017258327074       -1.15983703916527       -0.09477616629171
H            1.91952522971606       -3.33604455642213       -0.11100833500079
H           -0.56162562770898       -3.33205138682995        0.02071214140665
H           -2.69059906534605       -2.03516508186290        0.18182555903899
H           -3.76838182214023        0.22860491228046        0.32317578906721
