17
 energy: -34.503321910641 gnorm: 0.000544604564 xtb: 6.6.1 (8d0f1dd)
C           -2.26087172589144        0.47331235021538        0.04225444866876
N           -3.47799948537404       -0.08409319170474        0.00581948310953
C           -3.58794087019081       -1.37590732579834       -0.02666072154825
C           -2.46422535403762       -2.26039953697557       -0.02591626957270
N           -2.59851540100907       -3.56591133315257       -0.05918549306447
N           -1.53082900245806       -4.34052906765645       -0.05693544101350
C           -0.33918588160505       -3.83992592914582       -0.02232011247152
C           -0.08449890038591       -2.42670837433910        0.01579080760631
N            1.11664204999302       -1.91961646716855        0.05073630922320
N            1.27642182641607       -0.59843390863630        0.08486346176333
C            0.25716718342085        0.18833741801679        0.08382348720541
C           -1.10541573745940       -0.28220883400868        0.04663908848836
N           -1.22739885086761       -1.64874138740372        0.01217253650207
H           -2.21873650403446        1.55019292893032        0.06838130960667
H           -4.57563012110173       -1.80800360862425       -0.05575265920695
H            0.49907083230935       -4.51673518953637       -0.02216684455688
H            0.44633594227595        1.25017145698798        0.11241660926066
