17
 energy: -34.543202358341 gnorm: 0.000553137463 xtb: 6.6.1 (8d0f1dd)
C            1.26329517132534       -9.22594513468261        3.57438736446659
N            0.02285651633049       -9.55877539058897        3.79700786731110
C           -0.92300830302665       -8.64363492558496        3.50094984517572
C           -2.28504232559453       -8.85752849229008        3.68501138959941
N           -3.19956362326846       -7.94249465788519        3.38673930594032
C           -2.82976657012459       -6.78871488331874        2.90013724798932
C           -1.47448903356719       -6.45079355734213        2.66714025892873
N           -1.10644998511379       -5.27517127574877        2.17195352518530
N            0.15139589831294       -5.01104343597089        1.97543322576052
C            1.08241453472755       -5.88333475883289        2.25548754869660
C            0.79152183910902       -7.16746248931094        2.78830617815945
N            1.70888567566326       -8.06956821177780        3.08122701342650
N           -0.54623652002546       -7.41961790105166        2.98585459826941
H            2.01925884169113       -9.96223975438468        3.81287398524570
H           -2.62755333033966       -9.79762316991152        4.08448673715174
H           -3.59233490891643       -6.06352385484079        2.66648504081353
H            2.10687612281704       -5.60681810647731        2.07096886788001
