18
 energy: -34.254725864451 gnorm: 0.000735352120 xtb: 6.6.1 (8d0f1dd)
C            0.22766435336692        6.46580094724035        8.13423929876262
C           -1.11767135750610        6.19683601865710        8.20346203872735
C           -1.78344218285771        5.61161599479842        7.11147537276644
N           -3.08514077621789        5.34552769731433        7.16386107235718
C           -3.66582852905579        4.79519513170469        6.11204578692597
C           -2.99880480010001        4.47400882780368        4.94550234510216
C           -1.62991486287950        4.74949891625075        4.87960538189009
N           -0.89550803826687        4.47599341824559        3.79481426480552
N            0.36940264801125        4.74902855474407        3.77989623267083
N            0.97783841348340        5.27733345921325        4.76152351552133
C            0.31158845920924        5.58980862817584        5.90598199804487
C            0.95554904231637        6.16535370684243        6.98584494618450
N           -1.04079750540033        5.32511683382325        5.98974745824465
H            0.73009548381557        6.91496559774634        8.97704506117013
H           -1.70824025848371        6.41669582767355        9.07563458522060
H           -4.72491217407052        4.60495483796387        6.22007568302412
H           -3.47646064577888        4.02656588232807        4.09339181203041
H            2.00904273041441        6.36331971947433        6.90010314655122
