21
 energy: -37.493817234280 gnorm: 0.000745639358 xtb: 6.6.1 (8d0f1dd)
N           -2.01477228800971        1.04941042404987       -0.11714699977137
C           -0.67497288901616        1.16612959023598       -0.05785151762968
N           -0.00727649116061        0.01371198253310        0.12123075916239
C            1.29607540976133        0.02090597614222        0.18661147633841
N            1.93602374219436       -1.13282067927404        0.36442823100675
C            3.25053330734619       -1.09670408544939        0.42687505441093
N            4.02086883568073       -0.03937943453231        0.33341451168640
C            3.41347895145136        1.14266164615530        0.15410562747292
C            4.15698382682145        2.31188750996612        0.04567676218508
C            3.51471676994091        3.52722885900694       -0.13947700420808
C            2.14315023318366        3.58199149124763       -0.21649594855606
C            1.37779715034399        2.40760140290128       -0.10856906277472
C           -0.01888184942128        2.38463783950105       -0.17687655851325
N            2.03264844229852        1.21399861080891        0.07444739304623
H           -2.60573171759670        1.85172271266173       -0.22708199695363
H           -2.41161050418394        0.13370574335512       -0.00788676897669
H            3.74913100599540       -2.04703613627528        0.57164220427073
H            5.22713693588732        2.22869387611496        0.11089264147059
H            4.09683570735363        4.43239893338182       -0.22308377117425
H            1.62195852118789        4.51383923346130       -0.35994568260472
H           -0.55763310005833        3.30547450400767       -0.31999934988800
