17
 energy: -34.497396990376 gnorm: 0.000221420325 xtb: 6.6.1 (8d0f1dd)
C           -2.36003200577800        0.54505920488018        0.05843014436932
N           -3.52404184421229       -0.06454275162436        0.04932313665561
N           -3.60859622398098       -1.35153234191977        0.02509918028504
C           -2.49831496124964       -2.10532740722962        0.00845465315465
C           -2.54235828172719       -3.50925099595544       -0.01808335989919
N           -1.45870763888697       -4.25542879567575       -0.03452741340464
C           -0.27254780210787       -3.68596574106539       -0.02623339326180
C           -0.09858411414764       -2.29214885596455       -0.00016185906553
N            1.11506535211450       -1.71928787898629        0.00812693833837
N            1.23088913237050       -0.43472357436319        0.03226770415973
C            0.17535039107170        0.34767067942797        0.04936505421596
C           -1.14020930771345       -0.16789507018956        0.04234692063770
N           -1.24607969498636       -1.52663128243719        0.01678917992829
H           -2.36434733653049        1.62216589571720        0.07886472366137
H           -3.50013238643000       -4.00250386544815       -0.02541624229280
H            0.59727377663380       -4.32149829633981       -0.04012915321312
H            0.34645294556040        1.41112107717375        0.06919378573108
