20
 energy: -38.561588407087 gnorm: 0.000325915068 xtb: 6.6.1 (8d0f1dd)
N           -1.17410945058691        4.61898498340500       -0.56187075140286
C           -0.65900179952456        3.62778054741181       -0.29966961270385
C           -0.01353517675228        2.42035780436312        0.02717976044246
C            1.29731110073842        2.42407985998285        0.51139882086917
C            1.91622823150011        1.24048187544888        0.82702025523970
C            1.24060888472409        0.02176474533945        0.66676523228111
N            1.84105193281136       -1.12619932492859        0.97306896036659
C            1.14851823014148       -2.23374132282091        0.79843958853175
N           -0.08050712952591       -2.32671543936471        0.35088375913495
C           -0.71775081367622       -1.20281589561781        0.03271178867497
N           -1.94394657975539       -1.26811127378513       -0.41585193792066
C           -2.58361986487659       -0.14472492387356       -0.73485792482011
C           -2.02222252975384        1.09964824978678       -0.61863477556326
C           -0.69957917707199        1.19807623141184       -0.13682438455179
N           -0.05572991546571        0.03502621631327        0.18656539187417
H            1.81168655968781        3.36536298576397        0.63244194858045
H            2.92331956345903        1.19727652694858        1.20243871958483
H            1.64599913874978       -3.16102042045388        1.05046355980919
H           -3.59255717864997       -0.27992825945892       -1.09797034813244
H           -2.55000402617270        2.00107683412797       -0.87993805029436
