17
 energy: -34.527316638135 gnorm: 0.000190347111 xtb: 6.6.1 (8d0f1dd)
C            0.93565341620313        9.34927203416684        2.66418286818903
C           -0.35847894123850        9.48898921377786        3.10962441169902
C           -1.28958512099687        8.48871568900561        2.77323822777228
C           -2.64931881656515        8.45740527106655        3.13490741630719
C           -3.41043495881005        7.39217379661781        2.71217504983017
N           -2.93687883580558        6.38869447480148        1.98091088760179
C           -1.67173476942718        6.40349417132617        1.63583613265336
N           -1.16133550406525        5.40805677738671        0.89905851473276
N            0.07229151004441        5.41003445514223        0.55530108730687
N            0.89758694626386        6.33509255271612        0.87649278439437
C            0.50400868538279        7.38320247931008        1.61188736991815
N            1.35975427167719        8.32349260983618        1.93350565496066
N           -0.82876261581010        7.44697187850503        2.02272211995684
H            1.69163199813089       10.08758833887400        2.89325070844204
H           -0.67710341142949       10.32999880942980        3.70060820658901
H           -3.05701036287837        9.25831702972073        3.72686055302911
H           -4.45995349067570        7.31744041831671        2.96119800661734
