21
 energy: -37.494035596623 gnorm: 0.000675838244 xtb: 6.6.1 (8d0f1dd)
C           -2.16447370627372        1.06128302146410       -0.13091979323712
C           -0.68140470836067        1.17454408939678       -0.06190332300354
N           -0.01949262979824        0.03344874892265        0.14177309220531
C            1.28799979452739        0.03424418595079        0.21702667569304
N            1.93475600934106       -1.10988817578760        0.42030385167235
C            3.24595226258538       -1.06242353112608        0.48905012766107
N            4.01340681208141        0.00020014932689        0.37910708274534
C            3.41865562391109        1.16963468302856        0.17512387763543
N            4.14502083593487        2.25848664851193        0.05899210090458
C            3.53672659995428        3.42131988933157       -0.14476238502032
C            2.17393812158143        3.56210691463249       -0.24369186819327
C            1.37538813965554        2.40857795833655       -0.12236043709992
C           -0.02452593060762        2.38236386524092       -0.19924286290453
N            2.02068605129871        1.22151453944735        0.08703180166277
H           -2.53546615447054        0.62933180836804        0.79628479899738
H           -2.62872095949696        2.02843166234422       -0.29880057813095
H           -2.43578489940803        0.37705466065333       -0.93224945837143
H            3.75266013893879       -2.00451516269534        0.65487325423044
H            4.19806600301967        4.27283261905252       -0.23021546040836
H            1.70223460796266        4.51514769915478       -0.40912900876082
H           -0.55514201237651        3.30489372644547       -0.36365148827746
