16
 energy: -34.750380529824 gnorm: 0.000942170517 xtb: 6.6.1 (8d0f1dd)
C           -2.22363828522236        0.53011538548018       -0.01492499119131
N           -3.43078792897720        0.04536390867311        0.04675104980339
C           -3.62188858797125       -1.27254138190259        0.10499454296289
C           -2.56512079839510       -2.16745795369953        0.10256013954925
N           -2.70082451526535       -3.52457724007074        0.16050482060865
N           -1.68700770018985       -4.27537675073650        0.15385713303782
N           -0.45913078397696       -3.82835736096442        0.09273427820351
C           -0.24140122525069       -2.52244185057471        0.03405547131023
C            1.03995944653801       -1.91376911341600       -0.03510413120204
N            1.19180407653221       -0.61784857866863       -0.09117728594224
N            0.17254925045167        0.19279142034645       -0.08673567944827
C           -1.06154160248228       -0.28838597286951       -0.02414146551741
N           -1.29342267922712       -1.64083431927832        0.03691706651100
H           -2.10285538140021        1.60066115178202       -0.06098592270949
H           -4.63632971108529       -1.63106349286053        0.15491123143250
H            1.92331642592178       -2.52964785124026       -0.04232625740844
