19
 energy: -33.998163391489 gnorm: 0.000465418665 xtb: 6.6.1 (8d0f1dd)
C            0.23764750796863        7.74249751816736       -6.71654922404786
C           -1.13241861183725        7.81346185376510       -6.79683665983669
C           -1.93795709173950        7.07226194202828       -5.91065830028488
C           -3.34405889611822        7.09257043943378       -5.93044379863722
C           -4.02300160265910        6.32424396336313       -5.01232839392329
N           -3.42742377072943        5.56509057955780       -4.10915937005606
C           -2.10798520206061        5.52362809026588       -4.06387181947589
N           -1.53577030680078        4.75817835961257       -3.15309553587493
N           -0.23506376620570        4.67457024559779       -3.05751400919940
C            0.53462813223963        5.34440401506144       -3.85851943096740
C            0.03429186300783        6.20552838555478       -4.88356502825092
C            0.83348941494465        6.93496219876213       -5.75569750319567
N           -1.32907070009399        6.28404165311369       -4.97287504508571
H            0.85200827883838        8.31172978575896       -7.39710325096054
H           -1.62444730477689        8.43002933079577       -7.53034391770516
H           -3.85027977604328        7.70354555407432       -6.65724690604506
H           -5.10413755330344        6.30527737100204       -4.98635129276546
H            1.59999781520651        5.23495119165614       -3.73139386000160
H            1.90345936316270        6.85706541342899       -5.66619826168620
