21
 energy: -41.512006456435 gnorm: 0.000618925888 xtb: 6.6.1 (8d0f1dd)
C           -4.17168840540389        0.37739895925695        0.00042904127938
N           -3.15460370714164       -0.63915466773966        0.00017144285766
C           -1.85073611479932       -0.39782533801063        0.00013429293333
N           -1.43490144105961        0.87761927540665        0.00001098099952
C           -0.14486620090212        1.09343487192606       -0.00006575958240
N            0.35050123368689        2.32764839062828       -0.00017198323568
C            1.65955058983049        2.44612906681648       -0.00019128924537
N            2.56088922381164        1.48208244067822       -0.00012934462234
C            2.10911604918342        0.23840000618902       -0.00004454983614
N            2.92940496759567       -0.79840536057348        0.00000208766551
C            2.37716347532335       -1.99839865610457        0.00008570255753
N            1.09863159605024       -2.29840442728295        0.00013491199351
C            0.23786053979891       -1.28358377010370        0.00008936314592
N           -1.05372035592345       -1.48143799758039        0.00015321892808
N            0.73881368988353        0.01740886260431       -0.00000825277818
H            3.06348194426618       -2.83561350650299        0.00010596900216
H            2.04659334010792        3.45716278174070       -0.00026216459763
H           -3.42180946476346       -1.61291935227015        0.00042025740798
H           -3.67645228055733        1.34557946959978       -0.00104501586311
H           -4.79805568549711        0.28621204878160        0.88923329412848
H           -4.80012453873530        0.28444666074620       -0.88670961368231
