18
 energy: -34.280973972785 gnorm: 0.000701841223 xtb: 6.6.1 (8d0f1dd)
C            0.80995331076203      -10.48471035567626        1.12341950430159
C           -0.52315602853742      -10.56100098493222        0.72846353444838
C           -1.29103923921515       -9.41137234495278        0.67022814818589
N           -2.58931668464166       -9.43719240357257        0.29245240728174
C           -3.23125779552508       -8.30469174820682        0.26807557480740
N           -2.74544826326400       -7.10287116286013        0.57851961273292
C           -1.47870401108619       -7.06427326819373        0.94901408249587
C           -0.81492203509416       -5.86467270028437        1.31041069535559
N            0.44056673724684       -5.83942857067039        1.67574904813039
N            1.14748970359367       -6.92511304201642        1.72547694280445
C            0.61165870415757       -8.10275945330380        1.40407472337734
C            1.37723914070796       -9.27933691852665        1.45782332098558
N           -0.70790456652295       -8.20557972088107        1.00926204061527
H            1.40029809279010      -11.38703153378645        1.16557960362837
H           -0.99075143171190      -11.49211632188962        0.46168001810144
H           -4.26948231325398       -8.33409271310019       -0.03525041980749
H           -1.35549658790712       -4.93383345251373        1.28665910291307
H            2.40309326750149       -9.18327330463278        1.76705205964225
