16
 energy: -34.805617610311 gnorm: 0.000724230667 xtb: 6.6.1 (8d0f1dd)
C            0.95027677897387        2.34389382163929       -9.56000830660299
C           -0.33219405540863        1.93743332996465       -9.85736520429084
C           -1.22233518225355        1.72995940234043       -8.79180892524229
N           -2.48653874279802        1.33770539180012       -8.94028887525248
C           -3.19606087512913        1.18690853441334       -7.84041313493853
N           -2.79592651266260        1.38128561774661       -6.59855789808278
C           -1.54416557765141        1.77130221884056       -6.42381980262337
N           -1.04104787886117        1.99481981991618       -5.21586776273458
N            0.18630484972227        2.37526223246298       -5.07849137601561
N            0.98545901975439        2.56062493093523       -6.05060989787232
C            0.58651816563796        2.36494593270050       -7.32151270915328
N            1.40237084092387        2.55342176988178       -8.32688201473025
N           -0.72393241467985        1.95495766611394       -7.53394814634643
H            1.67618729382234        2.51822806170760      -10.34214661604327
H           -0.68004620210020        1.77299601589636      -10.86132704337461
H           -4.22210950729014        0.86857525364042       -7.96946228669626
