24
 energy: -40.639787332926 gnorm: 0.000651436020 xtb: 6.6.1 (8d0f1dd)
C           -1.10166867807210        3.73597692990361       -1.45087416797483
N           -1.27121711752925        3.28905868831686       -0.08950494361327
C           -0.41860156617797        2.35245727559431        0.46396828439241
C            0.76363590737755        1.96089398984795       -0.15481182686420
C            1.61173354473139        1.05430286725252        0.45220710191846
C            1.29342769777816        0.50507944797428        1.68741946685152
N            2.11094128758548       -0.40003017564164        2.26227188019380
C            1.74014716682375       -0.87823027216475        3.41901093785226
N            0.64876432326834       -0.56202157964959        4.09495082529518
C           -0.17329134419952        0.33134421734531        3.56709825613805
N           -1.25365787996339        0.66748621681453        4.23023450072285
C           -2.07572565431015        1.57584927672095        3.70789765095419
C           -1.87062244950930        2.17380414138961        2.49623338031824
C           -0.72096603881491        1.81626341549981        1.74220557441500
N            0.12576681896776        0.90349526525791        2.30569946403974
H           -1.14896983022574        2.91784044807379       -2.18057903111092
H           -1.88926148257456        4.45132129866469       -1.67686503525338
H           -0.14185671232862        4.24321570237237       -1.55302904759958
H           -2.23481194255434        3.19407426827441        0.19140320411863
H            1.02909574914852        2.35973015821502       -1.11939451590743
H            2.52945828769536        0.73788520709437       -0.01087227875034
H            2.39159734648892       -1.61072446523690        3.87806679866525
H           -2.93541191439444        1.81739891627539        4.31791336387022
H           -2.55122551921277        2.92064876180641        2.12832015732857
