17
 energy: -34.556968314618 gnorm: 0.000610592576 xtb: 6.6.1 (8d0f1dd)
C            1.20804212570080       -2.36927489849916       -9.22700752522113
C           -0.05255830811200       -2.81008608060243       -9.54180123388435
C           -1.09346832729423       -2.58731701176555       -8.61562103704786
N           -2.34104829801900       -2.97263115306459       -8.82417124879233
C           -3.21804511444294       -2.69664032596228       -7.86535159124688
N           -2.98689722985615       -2.08497947102310       -6.73456414352091
C           -1.73723846810851       -1.68078664836676       -6.48877956295287
N           -1.44467092685694       -1.06286316859468       -5.37340560313438
N           -0.21781236658100       -0.66414387966462       -5.12828573701500
C            0.74295105396837       -0.86558800966111       -5.97474151529151
C            0.54572279552600       -1.52918207371885       -7.22602065444845
N            1.51024728588396       -1.73820813968451       -8.08950764924642
N           -0.74657559282719       -1.93425771522372       -7.45406784506444
H            2.04100894600422       -2.51413661280213       -9.90070876426075
H           -0.28769408322448       -3.31754519441002      -10.46013460883231
H           -4.23576343890423       -3.01640418323388       -8.04647269933728
H            1.72878994714332       -0.51522543372266       -5.71718858070306
