15
 energy: -26.247710264982 gnorm: 0.000300036819 xtb: 6.6.1 (8d0f1dd)
C           -2.42356166833066       -0.02262017983629       -0.00021687396667
C           -1.77105581586095       -1.26175213628816        0.00004354977288
N           -0.50166269431950       -1.58317402965059        0.00043222338548
C            0.50165631665803       -0.73856844097321        0.00067686147493
N            1.77540504107524       -1.13649171002672        0.00107025530966
C            2.48371281355854       -0.00980810517091        0.00120983299578
N            1.80248674210602        1.13708710988349        0.00094884099194
C            0.51746151281822        0.76634252657063        0.00059399578838
C           -0.55630637224081        1.63384640755433        0.00023154703481
C           -1.89300020286023        1.25857037302878       -0.00013573852970
H           -2.61225812807268        2.06871504836036       -0.00039083862371
H           -0.31781277984198        2.68974530975425        0.00024174660556
H            3.55888657960357       -0.02199609424007        0.00152966341904
H           -2.41713626429923       -2.13569180137201       -0.00009579660895
H           -3.50526273209358       -0.08299828299387       -0.00052861024942
