15
 energy: -26.232705719368 gnorm: 0.000315503446 xtb: 6.6.1 (8d0f1dd)
C            2.37059076088178        0.06632834035218       -0.00009078678222
N            1.84500923406774        1.26935271943543        0.00003370973761
C            0.55432947005037        1.56331235656829       -0.00020264015036
C           -0.52935955491096        0.70322153233385       -0.00075816132563
N           -1.79906607060281        1.11451925099312       -0.00107240274383
C           -2.56257719624480        0.01542288991707       -0.00159273671376
C           -1.83530416496618       -1.17297958357430       -0.00163414392024
C           -0.49189948055557       -0.79980083386585       -0.00110165500415
N            0.54578034402151       -1.61093098615652       -0.00089204245824
C            1.79711312765936       -1.22348083577021       -0.00042553422494
H            2.49979950934416       -2.05180557549670       -0.00032117110008
H           -2.22137159768793       -2.17196369427808       -0.00199698599611
H           -3.63407631685337        0.11702110801502       -0.00192143246313
H            0.33896719987303        2.62707331475412        0.00002690570211
H            3.45794521192366        0.08760718067255        0.00013099994295
