13
 energy: -26.693010748635 gnorm: 0.000958554573 xtb: 6.6.1 (8d0f1dd)
C            1.97398683267867        0.94949571692038        0.13805858082898
N            2.30765043035639       -0.26341738667968       -0.21688249434618
N            1.61690213565986       -1.30688708274544       -0.48805010037382
N            0.45388463993077       -1.49535736302577       -0.00945872348742
C           -0.48477592099894       -0.60159534282684        0.15014086290872
N           -1.75733328125625       -0.89145614635684        0.43209512066533
N           -2.50185235791110        0.15625511160255        0.19842687935015
C           -1.77505339397059        1.22268019030309       -0.11940833735081
C           -0.42014589003005        0.86594701695707       -0.20039209721699
C            0.74366815025558        1.59555283182464       -0.08417422928335
H            0.69638399371768        2.67607374058390       -0.03558371458056
H           -2.23875423118392        2.16784358250887       -0.32244740800432
H            2.79299018155192        1.52263608913410        0.55841806859021
