12
 energy: -26.996160387785 gnorm: 0.000811849316 xtb: 6.6.1 (8d0f1dd)
C            2.30257095847129        0.02176481399889        0.09787409419562
N            1.68629400894798       -1.08878564049157        0.29149389745953
N            0.55475899470081       -1.48544062815178       -0.19168419935292
C           -0.52328350411254       -0.78999676997972       -0.20463318408925
N           -1.80647430924839       -1.05887694700329       -0.36236051899136
C           -2.44901642328943        0.01637392877513        0.08617352898775
N           -1.71997684066605        1.08037819986825        0.44518269216869
C           -0.47007624413968        0.72761869375260        0.18994375052434
N            0.53642379092314        1.34353619459853       -0.31175984611762
N            1.72294534781009        1.07673841741144       -0.57117346555326
H           -3.52201247174758        0.04492084717226        0.13161810896281
H            3.33487894805038        0.11219872314927        0.40167975660565
