14
 energy: -26.455015488573 gnorm: 0.000539448980 xtb: 6.6.1 (8d0f1dd)
C            1.86526449764274        0.97277613053486        0.21142195599350
N            2.28706039992733       -0.22339740281168       -0.08118959298978
N            1.68120446313891       -1.27269398606838       -0.50946689738497
N            0.47174023898993       -1.53710482807687       -0.21750065921177
C           -0.50772922615506       -0.69150926045766       -0.00755507286324
C           -1.85122353693929       -0.97157968743497        0.24515579185311
C           -2.53866369230694        0.21587410870095       -0.00746239913329
N           -1.75243710884801        1.24922967113660       -0.33007044206739
C           -0.49889814850106        0.79844170038721       -0.28295414651714
C            0.63098868125827        1.56636964051938       -0.12941583854145
H            0.53174223112213        2.64314895612743       -0.12020459484604
H           -3.60467746608982        0.35870612069834        0.03342670973014
H           -2.27246130534940       -1.92351334669939        0.49585302965952
H            2.61606743041035        1.59240586974418        0.68963452161883
