14
 energy: -26.452025121529 gnorm: 0.000678544339 xtb: 6.6.1 (8d0f1dd)
C           -1.86934397746899       -1.18310053779881       -0.05405888533643
N           -2.33883928324596        0.00055776680633       -0.44397778251293
N           -1.82614278858214        1.11759110631907       -0.15576861170862
C           -0.64210588145374        1.52792121626003        0.19046288367370
C            0.52536234843545        0.78834179001545       -0.03399708369174
C            1.88166060384051        1.09406303420068       -0.13876473669326
N            2.59814248806826       -0.03361592705469       -0.12497864373432
N            1.81974012246190       -1.07800992362148        0.00848791653185
C            0.54372384565966       -0.68309441381092        0.02645262543630
C           -0.54902922917556       -1.53850228090165        0.17641793094911
H           -0.31654444836804       -2.58628702412450        0.31405423408024
H            2.35685565338124        2.05080037004801       -0.22847831367767
H           -0.59474468016470        2.54737114757066        0.55337645735460
H           -2.61942100078789       -1.96374085220816       -0.07640948187084
