13
 energy: -26.744714601738 gnorm: 0.000435524521 xtb: 6.6.1 (8d0f1dd)
C           -2.30235952671247       -0.00024902484808        0.27922020992955
N           -1.83824525082198        1.17328659630620       -0.08403384849355
C           -0.59906431192400        1.50861097661643       -0.28641174838284
C            0.49625398775308        0.73516162732773        0.13410463439492
N            1.77531906874499        1.08590735396402        0.26974615706893
N            2.48201823048523       -0.00014200754300        0.40973308334180
N            1.77539964374227       -1.08610354627497        0.26862900497888
C            0.49631843367856       -0.73531041101161        0.13334141230777
C           -0.59893213049054       -1.50838871141016       -0.28801821936415
N           -1.83811802269423       -1.17334492912925       -0.08527571072306
H           -0.42152987630624       -2.46563718148604       -0.76339073563489
H           -0.42171182303463        2.46638435618045       -0.76074652307175
H           -3.26991531102006       -0.00055770559168        0.76940479714844
