14
 energy: -26.480843089870 gnorm: 0.000727144525 xtb: 6.6.1 (8d0f1dd)
C           -2.27666633789905       -0.05067384312471       -0.19308872798382
N           -1.90273105093973        1.18783336966257        0.16153645137857
C           -0.65961406202528        1.56056447053840        0.19333048414231
C            0.47206615191788        0.78315721014746       -0.14048536955680
C            1.80667380881074        1.15817215142775       -0.18732781577762
C            2.55332618318544       -0.03027255786119       -0.08820804598073
N            1.80056264620289       -1.09868493040349        0.12703319983566
C            0.52726188996028       -0.69299122994074        0.09300696024972
N           -0.49208495528221       -1.44439516365639        0.44776385642683
N           -1.67992478640318       -1.16742306867634        0.07747813858879
H            3.62345354401932       -0.12601327450995       -0.12772823125726
H            2.19601004572188        2.15248946160164       -0.29235876749337
H           -0.49657889736942        2.58575263802966        0.51139255377404
H           -3.27825022599954       -0.13983997313464       -0.59572044954629
