13
 energy: -26.726488311943 gnorm: 0.000566710070 xtb: 6.6.1 (8d0f1dd)
C           -2.36943563781532        0.03130865539174       -0.00181318793218
N           -1.87874374459037        1.25120305243779       -0.00060171829681
C           -0.60379327903976        1.59174769517491        0.00144653662802
C            0.49206205777833        0.74353220250116       -0.00004223559542
N            1.78291371661985        1.08763394216456       -0.00031835692640
N            2.49210001425192       -0.00953292964637       -0.00123079764749
N            1.78537034427887       -1.09917646485073       -0.00092743822362
C            0.49381515496467       -0.75563254448520       -0.00037180235992
N           -0.50643919376576       -1.60508362322878        0.00092121629915
C           -1.76487925150257       -1.24753664549740        0.00041850354368
H           -2.44762707591300       -2.09179058965428        0.00134782494368
H           -0.41809519150667        2.66105873288381        0.00385542435415
H           -3.45695647876018        0.02526589510878       -0.00450742738684
