15
 energy: -26.233021822020 gnorm: 0.000218574485 xtb: 6.6.1 (8d0f1dd)
C           -2.37348929413926       -0.00969075655325        0.00014445551252
N           -1.91291442925685        1.22863245077099        0.00036866379701
C           -0.64719165802854        1.58851369142924        0.00101465739507
C            0.49200517388297        0.79342704775132        0.00162215096464
C            1.83001951228395        1.16550865138401        0.00232819146660
C            2.56482299646008       -0.02623321946943        0.00272807805309
N            1.80859998095297       -1.12126861012858        0.00234305057544
C            0.53663385475842       -0.71694734123550        0.00167782732339
N           -0.45114508894875       -1.57015169317645        0.00116427096172
C           -1.72981121069643       -1.25432638668373        0.00048765589076
H           -2.37891549283912       -2.12492056541355        0.00014382614382
H            3.63696377171171       -0.12063535902894        0.00329664918967
H            2.22746036239573        2.16198155792791        0.00252664781514
H           -0.50481705973374        2.66687488509599        0.00109258122529
H           -3.46023243290314       -0.04380742557004       -0.00042235611415
