14
 energy: -26.484405546407 gnorm: 0.000329901223 xtb: 6.6.1 (8d0f1dd)
C           -1.85428263728196       -1.15419635019648       -0.00161001768254
N           -2.40142620496544        0.04313650171368       -0.00469112357481
N           -1.85713126220430        1.21713368742711       -0.00562143489412
C           -0.58084247267538        1.53181096429528       -0.00335035838317
C            0.54761616438191        0.70977241487759        0.00027088449047
N            1.81014822171550        1.12585931873278        0.00218535035943
C            2.53547492727844       -0.00240926116693        0.00519499091997
N            1.86272038303122       -1.14610915144162        0.00544514802143
C            0.57352934643182       -0.77589612757588        0.00240234653686
C           -0.52671751809150       -1.60305902523403        0.00148812713755
H           -0.34666250371204       -2.67002160743613        0.00334923179245
H            3.60998451134605        0.02218827246124        0.00728230695451
H           -0.39938390081558        2.60192278112384       -0.00464711362893
H           -2.61702523833875       -1.92823789748045       -0.00171627464909
