14
 energy: -26.451598268876 gnorm: 0.000753304234 xtb: 6.6.1 (8d0f1dd)
C            1.92395298230187        1.14276190009003        0.05677629183051
N            2.34322904334815       -0.05877220324845        0.41743737239526
N            1.77784294863442       -1.15283661995958        0.10588860819309
C            0.56460865591629       -1.51182887140223       -0.15078318868829
C           -0.56612162528671       -0.69561851431475        0.09000284802646
N           -1.81845035234933       -1.07395749855450        0.22748330904172
N           -2.60220711893909        0.00598372729880        0.21319544234774
C           -1.88458571204468        1.09615821964147        0.03754479217191
C           -0.50728530671965        0.77250038854548       -0.01786642595813
C            0.61600632569014        1.55854189899661       -0.20548943343092
H            0.46146065294981        2.61578141939812       -0.38738116998842
H           -2.34402075658108        2.06416042878921       -0.01003609892804
H            0.42915153421601       -2.52955512458820       -0.49285722914346
H            2.69765488786392        1.89933099350802        0.10695129783061
