15
 energy: -26.207156540984 gnorm: 0.000356761196 xtb: 6.6.1 (8d0f1dd)
C            1.83644612124187        1.17077431694168       -0.00144094563800
N            2.41934351684845       -0.00136639764721       -0.00482101869488
N            1.90097074990888       -1.19566269066958       -0.00388273089597
C            0.63366304892582       -1.53331690666511       -0.00168438658791
C           -0.53007041100162       -0.75731555021958       -0.00059642890897
C           -1.85704751086160       -1.15523733527337        0.00001098697018
C           -2.61492065398029        0.02824446797526        0.00234577251365
N           -1.87527370361127        1.12971709377316        0.00334413883365
C           -0.59251380976249        0.72892140858446        0.00146761264706
C            0.48685319844166        1.57490649335745        0.00187514967603
H            0.27812065183816        2.63658617529812        0.00380739307903
H           -3.68851597189728        0.10392610836508        0.00356093141279
H           -2.23654022210273       -2.15801575188189       -0.00096976305259
H            0.49573642135827       -2.61209475473835       -0.00126678194749
H            2.56906964645415        1.97336233359988       -0.00195835540653
