13
 energy: -26.721316570509 gnorm: 0.000975901077 xtb: 6.6.1 (8d0f1dd)
C            1.77367700235285        1.20005316750937        0.10885819836054
N            0.52627354013362        1.49322497707472        0.09739246140749
C           -0.50743148890995        0.67026866715488       -0.04422260569205
N           -1.76321019204323        1.07181109926058       -0.21523041194297
N           -2.55396314351134        0.03531258032542       -0.11216413005665
C           -1.86960466738056       -1.09812908247244        0.01596592174298
C           -0.50997294045584       -0.79784052159534        0.14528362105573
C            0.66654403306366       -1.56579551784598        0.12158027708813
N            1.76837339176188       -1.06293423273323       -0.35308670723913
N            2.27193105124395        0.07622163795999       -0.45897464579703
H            0.64875977800758       -2.64091388822386        0.23816386039231
H           -2.36716559528322       -2.04366465469993        0.10173320361507
H            2.48917875752061        1.96716341328585        0.36625541946559
