15
 energy: -26.225443640742 gnorm: 0.000972735736 xtb: 6.6.1 (8d0f1dd)
C           -1.92059286410771       -1.17794571581060        0.00125573371179
N           -2.42269297039386        0.03204745845372        0.00056316927381
C           -1.80128922840565        1.20032047634657       -0.00036221555135
N           -0.53172607860554        1.55285949812423        0.00026155613656
C            0.48509049733237        0.73180522114850        0.00066471727264
C            1.83793721519013        1.08544398501347        0.00125001347431
N            2.63217845524529        0.01327458341350        0.00085230127879
C            1.87662950970936       -1.08567471824283        0.00022645115195
C            0.51134791922807       -0.78635570287769        0.00015041592330
C           -0.58349711206594       -1.61319263024274        0.00059087423116
H           -0.41062384262384       -2.68344662562494        0.00077629351695
H            2.33134312369240       -2.05944366542418       -0.00011772463764
H            2.24709720115861        2.07716300437178        0.00171988524379
H           -2.48451286533303        2.04596446573777       -0.00134085563171
H           -2.68409156372065       -1.95194035168658        0.00235803200563
