14
 energy: -26.474175512485 gnorm: 0.000977180803 xtb: 6.6.1 (8d0f1dd)
C           -2.31365424258620       -0.05024755032780       -0.25006972618988
N           -1.65982787298839       -1.16030023355824       -0.21549807535940
N           -0.53193094189359       -1.47700719413745        0.29325502663661
C            0.50739486184829       -0.68763698932247        0.23604433440097
N            1.78440753910578       -1.07281140320697        0.34821348510596
C            2.51886773667219       -0.02386174852104        0.00298603006987
C            1.77571510309029        1.14593493365200       -0.25386049172852
C            0.45011306043230        0.79204984947136       -0.07967236407968
N           -0.59320851353618        1.56209272466738        0.21770247592287
C           -1.82610754357633        1.19578007006775        0.28239826167164
H           -2.52414745128121        1.92481676730006        0.67278478693630
H            2.16641598845711        2.10680526987638       -0.52394525333733
H            3.59110222204330       -0.11148609672348       -0.01719559211351
H           -3.29785038378753       -0.09467440733747       -0.69865189653589
