8
 energy: -15.228678537600 gnorm: 0.000850069776 xtb: 6.6.1 (8d0f1dd)
N           -2.63613612517761        0.01024868090224       -0.01382032862150
C           -1.48479788304654        0.00720033443982        0.01991870919975
C           -0.11422331693150        0.00261108709771        0.17752591605524
C            0.98593688004257       -0.81542707001478       -0.24073939551417
N            2.06645674087046       -0.00618463948026       -0.01917039926572
C            0.99191780851248        0.80924096213565       -0.24707091422851
H            1.00190477723546        1.65118065126334       -0.91811832760087
H            0.98973431929467       -1.66260499644372       -0.90520078882419
