6
 energy: -10.989994609878 gnorm: 0.000176532566 xtb: 6.6.1 (8d0f1dd)
C           -0.00000623154054       -0.78828489420527       -0.24146190155119
N            1.08128672656917       -0.00008539974019        0.04508500915714
C            0.00010550040412        0.78825931323264       -0.24148430220678
N           -1.08122342177225        0.00006796278428        0.04495224671148
H            0.00020731078601        1.65237811826403       -0.88265400315944
H           -0.00002773394650       -1.65242192063546       -0.88260705275123
