17
 energy: -27.280497235311 gnorm: 0.000541431749 xtb: 6.6.1 (8d0f1dd)
N           -3.41186024686320       -0.60334890828323        0.04459130947221
C           -2.26570278345615       -0.51351059378389        0.01608724730103
C           -0.86940237105636       -0.36913836129404       -0.00132194394888
C           -0.04055326679005       -1.49350114100047       -0.00644391270554
C            1.32579965842938       -1.35912331652304       -0.00786138160988
C            1.90645725130666       -0.08275636264502       -0.00073619515718
N            3.27060990062587        0.05388514238167        0.06876608707515
H            3.82597715608317       -0.74588882577208       -0.18333571927666
H            3.65925467264272        0.94857234116070       -0.17691264244465
C            1.08530794321101        1.04033955815322        0.00443421973630
C           -0.29967107243504        0.92282029328716        0.00172962824927
N           -1.09971000316856        2.03153095790051       -0.06515857071071
H           -0.69792632163238        2.91837173170698        0.18455935349999
H           -2.07985117718704        1.90998642087846        0.12925309937740
H            1.53038028908241        2.02577457921234        0.00935271420296
H            1.96204892026522       -2.23126476043744       -0.01088308273403
H           -0.49310933825745       -2.47419831084170       -0.00941286392683
