15
 energy: -23.840367124112 gnorm: 0.000690547271 xtb: 6.6.1 (8d0f1dd)
N           -3.57334946024022       -0.00080712384022       -0.00740422904405
C           -2.42554489066604        0.00191238996362       -0.00760247077188
C           -1.01636858683885        0.00075958147149       -0.00425067533724
C           -0.31280744761857       -1.20662606938511       -0.00119524783187
C            1.06256966441264       -1.20522567764446        0.00639482151474
C            1.77525968272534       -0.00054447311429        0.00944781622677
N            3.14274706221190       -0.00111444892276       -0.04520888070365
H            3.62457980243826        0.85255099215221        0.17785559793123
H            3.62388497231065       -0.85513599758253        0.17795275736426
C            1.06364816783523        1.20476690427643        0.00628854903403
C           -0.31169573030304        1.20743833783113       -0.00129875499365
H           -0.85567179506231        2.14055374184619       -0.00195924325695
H            1.60812888487567        2.13810176654151        0.00868718272211
H            1.60624401217719       -2.13903567646143        0.00886775508325
H           -0.85760428335778       -2.13927212883181       -0.00178349843710
