20
 energy: -35.247610021557 gnorm: 0.000711903342 xtb: 6.6.1 (8d0f1dd)
N           -3.42839343152389       -1.46586683526148        0.01849109970060
C           -2.42715920456789       -0.89766319297123        0.01048807746710
C           -1.21101823318063       -0.20251082044540        0.00558702639394
C           -1.21018572681341        1.21119080659164        0.00106092034036
N           -2.39231881328065        1.88501095472493       -0.06292772350868
H           -2.39787502411111        2.87089115608412        0.12811426440422
H           -3.24492008755658        1.37580198079381        0.09676440792380
C            0.00025454835560        1.89417794468621        0.00589732738403
C            1.21076042668824        1.21120987560312        0.00501517356200
N            2.39312513162196        1.88463506278330        0.06221174679166
H            2.39854737452547        2.87111628275243       -0.12505804979730
H            3.24551305533749        1.37523974540448       -0.09765557592641
C            1.21147530207734       -0.20247377763616       -0.00251679008598
C            2.42755223118464       -0.89673687640497       -0.03819026546711
N            3.42664753409639       -1.46618911140785       -0.09140572000056
C            0.00023135597401       -0.91799448413819        0.00680486899028
N            0.00034115849865       -2.27395082584303        0.05267394558873
H           -0.86532234101614       -2.77172359147015       -0.05932490517972
H            0.86574901168843       -2.77172081483502       -0.06148380961724
H            0.00028690920210        2.97401459948939        0.00765019473630
