13
 energy: -19.591870551137 gnorm: 0.000427764269 xtb: 6.6.1 (8d0f1dd)
N            2.33715048204780        0.00006275980834        0.03493224473524
C            0.97010288598463        0.00002155522645       -0.01471370700200
C            0.24222611259543       -1.19390229211433       -0.00911842746912
C           -1.13663323539132       -1.13046438834161        0.00230660586635
N           -1.82612810818765       -0.00004256625570        0.00661090662697
C           -1.13668784427577        1.13041110337908        0.00193615843955
C            0.24216843279351        1.19391198430832       -0.00950997778228
H            0.75559527112314        2.14403311072729       -0.01389566612836
H           -1.72948082233638        2.03619708713324        0.00566852595665
H           -1.72938238581438       -2.03627777871913        0.00633593491708
H            0.75569894207435       -2.14399995764585       -0.01319236233083
H            2.81649090904243        0.85420918614425       -0.19313405684466
H            2.81653222504420       -0.85413528255034       -0.19285368578458
