10
 energy: -16.422851351759 gnorm: 0.000504802128 xtb: 6.6.1 (8d0f1dd)
C           -0.00079084861554       -1.38316556879487       -0.00059309289247
C           -1.17790092437738       -0.64782629799828       -0.00009408250263
N           -1.17897742506631        0.67587358369727       -0.00000085456698
C            0.00069896254786        1.26895818554521       -0.00040818311996
N            1.17970828109168        0.67454867421257       -0.00089651087928
C            1.17714462822353       -0.64914917212847       -0.00098820816910
H            2.14936056093754       -1.12584292219323       -0.00139222633523
H            0.00130725415156        2.35182225292589       -0.00032657610323
H           -2.15065179984580       -1.12342754391067        0.00024096624793
H           -0.00139624454712       -2.46087106325542       -0.00066974417906
