15
 energy: -27.848223353809 gnorm: 0.000927769857 xtb: 6.6.1 (8d0f1dd)
N            3.04368993148971       -0.00091787115115       -0.03025546406494
C            1.89269990477845       -0.00037475216927       -0.02416309723229
C            0.49483214298980       -0.00004738508574       -0.01810302698966
C           -0.25109216736081       -1.19987526273853       -0.01805778609297
N            0.34612981141032       -2.40473392156855       -0.02028972506670
H            1.34706500866044       -2.48552907157095       -0.03032537417003
H           -0.23331048009222       -3.22439265406065       -0.02570835309344
N           -1.58738800941254       -1.18008732773099       -0.01419473674757
C           -2.16863300467439        0.00067126978364       -0.01025395456986
N           -1.58672903278728        1.18111141908803       -0.00959890638972
C           -0.25042525639739        1.20017493674717       -0.01307564511901
N            0.34748660544001        2.40470359691495       -0.00817156205035
H            1.34839635355909        2.48496153831195       -0.02416249264044
H           -0.23152137201779        3.22466357831801       -0.01538568743807
H           -3.25105969928543        0.00096777811207       -0.00748098943495
