21
 energy: -38.103090920651 gnorm: 0.000981042528 xtb: 6.6.1 (8d0f1dd)
N           -3.52629290550722       -1.82384067120765        1.46931349404949
C           -2.70817707031763       -1.27354948919011        0.88447361228180
C           -1.68556406528874       -0.62258062229812        0.15422939212634
C           -1.09034655169790       -1.42828794233842       -0.92804846143147
C            0.19420125589619       -1.73320728558572       -1.02208481119820
C            1.25503796979012       -1.33304159773346       -0.07809062647732
N            1.95315903732954       -2.36060666519843        0.45509713368201
H            1.71680919794909       -3.31058270214702        0.23280045492331
H            2.73361788975909       -2.18096857956644        1.06425490420066
C            1.62196997357442       -0.03055004002032        0.12648366745758
C            2.81346918947710        0.22364976193204        0.83458048210411
N            3.78818807016656        0.41022335940361        1.41327881757327
C            0.94999978479637        1.15049830125110       -0.38638365237387
C           -0.36219076447301        1.44463290423338       -0.27968657595675
C           -0.81585276690324        2.69854767642311       -0.75332945146048
N           -1.19731052567275        3.70743408315509       -1.14259314475911
C           -1.38441580970827        0.65664677388059        0.41178392096091
H           -1.95454979008803        1.19804091867049        1.15839897588303
H            1.60556408850822        1.91628627901623       -0.78752453944830
H            0.54233226473804       -2.36404387649886       -1.83135654693566
H           -1.79807842032825       -1.81277296068110       -1.65188750200186
