17
 energy: -30.418546129868 gnorm: 0.000529287064 xtb: 6.6.1 (8d0f1dd)
N            3.88547773350833       -0.13266295585039        1.36861800034862
C            2.89489568741724       -0.04163553992484        0.79663285707606
C            1.67170542540457        0.04241026103623        0.09941526091068
C            1.24378291402427       -1.19699950668077       -0.56864037806259
C            0.03814985258651       -1.76106481289155       -0.49053357168218
C           -1.13078933914143       -1.27842322573105        0.23676824819895
C           -1.67284019065958       -0.05608071702167        0.12515341407615
C           -2.84814428896484        0.29929296365429        0.81935437116996
N           -3.79995638465780        0.60961350692318        1.37880962899030
C           -1.15296807268224        0.96537748985857       -0.82425651412571
N           -0.01859297604728        1.49382948505362       -0.79127423322691
C            1.01439384875689        1.22114380758034        0.04821619392276
H            1.41052324732593        2.09461970616687        0.55157861006835
H           -1.83873655517966        1.29001203306482       -1.60129180060725
H           -1.62472331806721       -2.01641790209733        0.85972883634861
H           -0.10613749461692       -2.73270869203067       -0.94873702972431
H            2.03413114489042       -1.72849280640880       -1.08401116777734
