20
 energy: -37.614939282731 gnorm: 0.000965569926 xtb: 6.6.1 (8d0f1dd)
N           -3.31187526742668       -2.03242740519343        0.66610856761779
C           -2.38027104220502       -1.38035828495115        0.48963852958705
C           -1.28067620734232       -0.53904289438103        0.26109213494849
C           -0.02397936008146       -1.08018644528574        0.35794995413648
C            1.25798768794494       -0.57564975808127        0.03919073777933
C            2.24327616391881       -1.54788612365136       -0.20503785175020
N            3.07296429164577       -2.31694558793603       -0.41669639505860
C            1.68118634341347        0.76826938833286       -0.10086159685754
N            1.17653744292464        1.79738761389469        0.58655806856125
C           -0.03189789471013        2.14674928744909        0.82544374289420
N           -1.11382926297258        1.90782568578829        0.09746493177057
C           -1.63958484018140        0.79314736759977       -0.26808409078709
N           -2.64731008797870        0.80804735392580       -1.15628227988758
H           -3.21623132495742       -0.01261290888704       -1.28282923273542
H           -2.97719812563197        1.69238497562496       -1.50436337541228
H           -0.16276388526964        2.88375442663647        1.61482622971091
N            2.81002752529643        1.02837063402242       -0.78777246960916
H            3.38046759208147        0.26605555078026       -1.11590631546637
H            3.20748522917244        1.95083668787349       -0.73411169589474
H           -0.01667913954190       -2.13917302656106        0.60191382155301
