24
 energy: -45.291743714708 gnorm: 0.000643873055 xtb: 6.6.1 (8d0f1dd)
N           -3.84124675673284       -1.45867686583025       -1.46490311893098
C           -2.83556830593842       -1.27686810283830       -0.93871794519549
C           -1.61948897866769       -1.01229030640597       -0.28487172822787
C           -0.70577701805572       -2.01479086959213       -0.15248301535033
N            0.36300147860032       -2.03452588463580        0.64276176080245
C            1.36399974407072       -1.24372167345146        0.74051789259198
N            2.24322000794120       -1.40895015982777        1.74769627754083
H            2.12112170197141       -2.18903154688414        2.37121603636795
H            3.14251909416511       -0.96141612551488        1.70415117145672
C            1.69470888635060       -0.19093021740661       -0.24263935944420
C            2.97314835612675       -0.26421338128011       -0.80608965284026
N            4.03704814761523       -0.32079467741998       -1.24248478202833
C            0.86673304670805        0.86237139502902       -0.52595817129164
N            1.23253793199100        1.81273265087282       -1.41806134555331
H            0.72340439984108        2.67928950378528       -1.45947069461579
H            2.15433462148632        1.78160809448988       -1.82269829116988
C           -0.39774841661352        1.13502131489929        0.17730098014377
C           -0.47969405701302        2.44675239060357        0.67413996928086
N           -0.54816986671945        3.52566460889083        1.06979484229838
C           -1.50510477189946        0.33201672908609        0.29446612800111
N           -2.61719894786123        0.77994239446186        0.92192772455103
H           -3.47125171265828        0.25391074603632        0.84787214225066
H           -2.66870049273290        1.73823324909862        1.22714492179239
H           -0.93383622867388       -2.97640156256694       -0.60218202882983
