19
 energy: -28.252549599078 gnorm: 0.000634457121 xtb: 6.6.1 (8d0f1dd)
N           -2.65135327046611       -1.04808848986077        0.35291367583754
C           -1.48470723495479       -0.37532203452326        0.04861905519874
C           -1.54277140325873        0.96608229379132       -0.16183372887024
C           -0.54610127181875        1.88229542915342       -0.63184403429379
C            0.77368779433783        1.95779849630279       -0.36677321188249
C            1.47004443509998        1.15659620275414        0.62095924685657
N            1.47102156947328       -0.09086000212550        0.80835442495488
C            0.92913616570728       -1.04796985061276       -0.03514251258395
C           -0.37856408449891       -1.26664446221064       -0.25988391348576
H           -0.66644040420270       -2.19011759562925       -0.74587767631411
N            1.89321786150865       -1.95477759045900       -0.44072447842037
H            1.67047104215952       -2.51509304193278       -1.24625787016371
H            2.84299139877394       -1.62277972006244       -0.39241967232885
H            2.05838553155927        1.72994806321842        1.34021559705555
H            1.32239373956528        2.81951229416086       -0.72609226939258
H           -0.96149971771865        2.70378668789566       -1.21014126052845
H           -2.52275641219648        1.41777012605437       -0.04203950908652
H           -3.41844827268212       -0.49964491603116        0.70593592930948
H           -2.55297178118781       -1.96491809668339        0.75529521283811
