23
 energy: -41.551245490927 gnorm: 0.000865137456 xtb: 6.6.1 (8d0f1dd)
N           -3.92209736455222       -1.57275421015970        1.23288654914211
C           -3.01095095207069       -1.09858688284939        0.72120985265198
C           -1.87812744133764       -0.54311879567822        0.08651213947135
C           -1.42592933920975        0.66261879224345        0.48265395156575
C           -0.31643438798882        1.39885353670193       -0.09048449460501
C           -0.56858838281003        2.76508278957493       -0.32048587987284
N           -0.75628038166525        3.88277456257239       -0.51267214374125
C            0.95291725455268        0.93459458768565       -0.31880076566169
N            1.90762609915050        1.73629308189353       -0.85752844342181
H            2.87583533402741        1.48062142129101       -0.75533809587991
H            1.69808548575638        2.71264348927108       -0.99736859504803
C            1.43927820153395       -0.38944045571840        0.11159306639736
C            2.57932277619827       -0.34442187708214        0.93302752931570
N            3.51865871591910       -0.30703649149858        1.59591192082775
C            0.95198258152874       -1.59988704571569       -0.28269312829937
C           -0.15109890169977       -1.75168480273963       -1.24462160998834
C           -1.38947812567601       -1.31306709372979       -1.06624827089720
H           -2.15204250096684       -1.55371632908637       -1.79773366613616
H            0.09503299769816       -2.34167999226937       -2.11850617612728
N            1.53420442722591       -2.76168940985129        0.09791134919203
H            2.26121701459331       -2.75184316472889        0.79395992627960
H            1.09576277699573       -3.63779968852941       -0.12334165504834
H           -1.99046484320261        1.19403398780153        1.24175973778494
