18
 energy: -28.556479203722 gnorm: 0.000737071656 xtb: 6.6.1 (8d0f1dd)
N            2.76358758461364        0.21689737620345        0.93590922665423
C            1.63829913204551       -0.02283699517146        0.18091171399113
N            1.23794098024165        1.08191482986468       -0.53685694470960
C            0.04972572295699        1.50804724050409       -0.66019082007039
N           -1.04343969665319        1.22213134993932        0.08009076897848
C           -1.64485498317311        0.09771651852782        0.14830025433484
N           -2.77106071715194        0.01124586618900        0.90070273909080
H           -3.17701603450225       -0.88931536490641        1.08101144567912
H           -2.97993377652394        0.76806868438934        1.52901611772206
C           -1.29057174043651       -1.13336505849060       -0.57673328523173
C           -0.07878868969168       -1.71749951680611       -0.56438277336277
C            1.15075154091360       -1.28610831426878        0.03629393244675
H            1.78208519760084       -2.09081565887513        0.39510709652384
H           -0.02768414292922       -2.71461497407633       -0.99315966506582
H           -2.12819717877624       -1.66594968383944       -1.00677317082627
H           -0.08958959776871        2.33617500142639       -1.35455213459832
H            3.25889116018656        1.06395564472131        0.70946091662667
H            3.33830016434805       -0.57656824573120        1.16787044131706
