27
 energy: -48.440923089935 gnorm: 0.000590869731 xtb: 6.6.1 (8d0f1dd)
N           -3.79359070946079       -0.37354542935633       -1.60251481261329
C           -2.83469624301172       -0.39568684336416       -0.96440960466030
C           -1.66592694071471       -0.42187559930901       -0.19002022612116
C           -1.14260873440722       -1.64285682158132        0.17062659597131
C           -0.00577505041821       -1.84178109486068        1.03987520000399
C            1.21782786308700       -1.28379268225376        0.92942991162369
N            2.21458708881501       -1.57907014945906        1.81958668781070
H            3.16463108987077       -1.39751798278434        1.54088715591830
H            2.07572117767016       -2.34431815081237        2.45821008762253
C            1.64780220269828       -0.39403807913417       -0.16513698336197
C            2.79602529102649       -0.83072771793188       -0.84071743169994
N            3.75004944825346       -1.18967414332974       -1.37679232070609
C            1.12273993417621        0.82933699745958       -0.46751110736056
N            1.66342189266758        1.60830849058995       -1.43997469473215
H            2.53897124318089        1.33725363331751       -1.85688274813521
H            1.38800194504245        2.57333069939656       -1.50349341974542
C           -0.01567231436223        1.42730442462299        0.23739493753967
C            0.19239627161057        2.74426093841282        0.67300541854369
N            0.36212445290130        3.83070991318941        1.01471220997918
C           -1.27012184371882        0.88642725185894        0.33897683865018
N           -2.28110887437073        1.59303312234532        0.90517644825823
H           -2.13408875903474        2.56053809024609        1.14341074101490
H           -3.22725607786068        1.27125505540352        0.79182716715161
H           -0.14747484873289       -2.60322043186277        1.79724683798830
N           -1.79699651732136       -2.77999032546911       -0.18150935406391
H           -1.35737065949980       -3.67054196459506       -0.03527258269037
H           -2.58024364248552       -2.72905482383726       -0.81114093928477
