19
 energy: -33.866584644091 gnorm: 0.000519816419 xtb: 6.6.1 (8d0f1dd)
N           -2.86610783591586       -1.98027789446081        1.03968485539471
C           -2.16891248770998       -1.17289919049659        0.61382491621538
C           -1.29071840369873       -0.21227289388235        0.07887934165381
C           -1.68762467925334        1.07490145257927       -0.03825664095851
N           -1.06560440881241        2.02621617460094       -0.76469305314680
C            0.04823884451351        2.58022376566513       -0.57129948134441
C            0.98318971639920        2.29802594251546        0.51192596649466
C            1.47700230667199        1.08125230111394        0.76549276228496
C            1.22209069280554       -0.16461919358908        0.04281422680262
C            2.39551289878499       -0.89231130028497       -0.23613959951974
N            3.34321840035661       -1.50258029839660       -0.46362431552239
C            0.03247594527342       -0.73168940638134       -0.33197115321209
N           -0.00570856608337       -1.89465511191695       -1.02908317258492
H            0.85405852506233       -2.39212623879195       -1.19835255629069
H           -0.86748822699985       -2.41141853432626       -1.07879577110006
H            2.26923959554928        0.99846132642452        1.50219367925174
H            1.37252174869131        3.15600839850181        1.04168383652526
H            0.34213186215030        3.34428283298019       -1.28652382430567
H           -2.66664368568513        1.37047251374549        0.32332434626209
