21
 energy: -36.535849144672 gnorm: 0.000640711633 xtb: 6.6.1 (8d0f1dd)
N           -3.66277777813954       -0.07143569215400       -1.02554922665165
C           -2.58686432450837       -0.20573679743395       -0.63704384261213
C           -1.27727078879265       -0.31839927465623       -0.14844893198879
C           -0.57399529586026       -1.45000970745030       -0.43873677249408
N            0.59769712501130       -1.84788730609426        0.06644691511318
C            1.64955017041251       -1.12180796437236        0.25447583362412
N            1.98409024211402       -0.00322038785712       -0.44883769891802
C            1.40208331220769        1.13803179026920       -0.36045277177270
N            1.91732772568174        2.16223975139853       -1.08313363259907
H            2.60302668340058        1.94225618378619       -1.78490250010572
H            1.39505930665520        3.01549212680624       -1.17381197923787
C            0.31685665414456        1.49190376021572        0.55181629157730
C           -0.84732925409749        0.82411282055980        0.69045640591096
N           -1.78699761319176        1.21880220776627        1.60643464012923
H           -1.66870899987972        2.11318904439206        2.05257052515673
H           -2.73622692147231        0.91647616391001        1.45967106885281
H            0.46708440995754        2.40338173197225        1.11576976760404
N            2.62093469071346       -1.59887588446984        1.07347906519875
H            2.52279102033095       -2.54495006979696        1.39961643219658
H            3.54772330809860       -1.22336066100752        0.97449098512017
H           -1.06760353048623       -2.20641497358353       -1.04235675160402
