19
 energy: -33.093163696451 gnorm: 0.000569789227 xtb: 6.6.1 (8d0f1dd)
N           -3.62372765289787       -1.29864431385346       -1.16723342314445
C           -2.65990833350603       -0.83288568289748       -0.74693912022662
C           -1.46506752102220       -0.29654314200581       -0.23867462888622
C           -0.80054120440219       -1.10947946321967        0.78264299926905
C            0.50621225816575       -1.34875602314711        0.86618968010469
C            1.51829382877677       -0.86000517013669       -0.10526400624377
N            1.80587809196634        0.36506835165271       -0.32756077194195
C            1.08490191953149        1.41256212107227        0.19185273503989
N           -0.11793449458796        1.72320797994131       -0.14071758269232
C           -1.06929577148917        0.93674264764963       -0.66653872599310
H           -1.68591753900129        1.43942482086669       -1.40559711321340
N            1.79141079843427        2.26909798353974        0.97104459268582
H            2.79393900086787        2.20121775878587        0.95437533487281
H            1.38017432305886        3.16881074575562        1.15200613861284
N            2.24309449000843       -1.82620167682038       -0.70437932456444
H            1.96438450933259       -2.78772005254987       -0.62074130109250
H            2.87478796151157       -1.56515643646964       -1.44209637211747
H            0.89902147243445       -1.98768733405096        1.64599662213294
H           -1.46635039018134       -1.59168257661291        1.48989510279878
