15
 energy: -21.376147380641 gnorm: 0.000472398141 xtb: 6.6.1 (8d0f1dd)
C            0.03534140366503       -1.71309681639015       -0.32789400479516
C           -1.19711172132849       -1.21252315166995       -0.37077646514470
C           -1.67112322174844       -0.01439369038846        0.32167488513282
C           -1.09875359967220        1.18990940136648        0.26567818322729
N           -0.07629388617733        1.56183881871084       -0.57928497791126
C            1.08194020858410        1.07636314969820       -0.58193713627428
C            1.63988768579625        0.06430983390421        0.33483562929596
C            1.17227874349352       -1.17447842396779        0.42811483246716
H            1.68087922015680       -1.89637646063272        1.05841672732844
H            2.52377588529185        0.37058768332166        0.87991921184681
H            1.77227056165300        1.47230694695291       -1.32472358049045
H           -1.54222976455298        2.03755564909974        0.77439950659153
H           -2.60271548989952       -0.12741145280563        0.86067660079574
H           -1.96247193192452       -1.76256500703109       -0.90704537463198
H            0.24214920306303       -2.65076649876815       -0.83137880823788
