21
 energy: -31.702538360800 gnorm: 0.000780880480 xtb: 6.6.1 (8d0f1dd)
N            2.98654856263823        0.33504857940117        0.76209610690668
C            1.72150498038355        0.35362678330826        0.19304037456759
C            1.25534398866318       -0.96492329950384       -0.20177807463054
C           -0.00047808937762       -1.44979604668126       -0.14478983169194
N           -1.07264192022580       -0.87316826131478        0.50362222226420
C           -1.61397196232313        0.23562875013702        0.19746070495212
C           -1.21551369844288        1.20208436652930       -0.84363141609896
C           -0.02167762046725        1.80473726903413       -0.90150193775907
C            1.16378925460854        1.54608975697870       -0.12622852772182
H            1.74018099270649        2.43333197552128        0.11628910873161
H            0.07244560365030        2.64691237554233       -1.58320492668512
H           -2.02571785684329        1.55056858189520       -1.47102139934112
N           -2.75417572895008        0.59100671016147        0.86493848833497
H           -3.02518681419822        1.55956661785801        0.85455863034109
H           -2.96156197219751        0.06760764981566        1.69985272391120
N           -0.27816011395095       -2.75146315793703       -0.53501143097908
H           -1.25629716198648       -2.95152590839194       -0.66923513697082
H            0.33916677346691       -3.14977363794798       -1.22290822992998
H            2.03728747032302       -1.63172112624073       -0.54228144282070
H            3.29113109814185        1.18910636963666        1.20183988481434
H            3.23160939648131       -0.50506723450171        1.26031377330521
