23
 energy: -40.766812417913 gnorm: 0.000659666846 xtb: 6.6.1 (8d0f1dd)
N           -3.51621529591263       -1.46204331975410        0.74648873450427
C           -2.51350555525708       -0.95146263993311        0.49858148557767
C           -1.31019294170475       -0.32369581202154        0.16596301852941
C           -1.43953373072181        0.96932359000416       -0.54996846122207
N           -0.94641594879326        2.08008467255376       -0.16680591856457
C           -0.08722731953280        2.32688425158349        0.84597295824138
C            1.15013031749784        1.82912017866526        1.01884407506207
C            1.76994149621085        0.77375470577062        0.23693730067004
N            3.06992095673477        0.99192094337880       -0.08593586214482
H            3.46293321129645        1.90809474420883        0.03212784826390
H            3.56441737751739        0.32515675082190       -0.65478819307980
C            1.18784824559758       -0.43392312896723       -0.07171041126412
C            1.95113550674105       -1.38260864320071       -0.76802706820020
N            2.57472965456159       -2.16204129509021       -1.34340735100270
C           -0.11404343769506       -0.94732721716052        0.38247635674386
N           -0.06084654310434       -2.16459073579005        0.98302698492330
H            0.78745007489723       -2.70248588275798        0.92663657971326
H           -0.92018111718994       -2.65714579557285        1.16619549485627
H            1.80416599677079        2.30611656216853        1.73549424008826
H           -0.40819787587502        3.15247627061066        1.47298637614449
N           -2.19437484879582        0.92890891978437       -1.67360622196610
H           -2.42674160728101        1.80360780622239       -2.11348318111801
H           -2.80577754286213        0.14514373127597       -1.82588636735597
