21
 energy: -31.693756276106 gnorm: 0.000852613504 xtb: 6.6.1 (8d0f1dd)
N            2.95734472677244        0.53906093427400        0.71118937142807
C            1.67955397727606        0.47645596977431        0.19100054378277
C            1.30464232643050       -0.87027744512928       -0.21481458463826
C            0.12299354544260       -1.51251261535038       -0.11263823033847
C           -1.10665974717550       -0.98842057023586        0.46061469818420
C           -1.62772280211458        0.23370590203847        0.25237001297906
N           -1.27939837049827        1.12699825267272       -0.74621336513138
C           -0.18317016572461        1.75712289044579       -0.84587770446191
C            1.02901473022918        1.63463697144046       -0.08519050320092
H            1.55270148156001        2.56306476584941        0.11061149241189
H           -0.17690700675534        2.52681375214624       -1.62005194714812
N           -2.71778236022100        0.68926633197141        0.97794775614982
H           -3.26203479506447        1.39884394292666        0.51238086918771
H           -3.26294064288333       -0.01745575784683        1.44548406193497
H           -1.63332155986396       -1.67226844819012        1.11400910349071
N            0.06392594110212       -2.86964925284752       -0.39556574178728
H           -0.84662469098344       -3.22675711010849       -0.63643319626136
H            0.81561660329140       -3.23910338240681       -0.95650882935070
H            2.14845000547016       -1.45090241332767       -0.57418950711248
H            3.22563209071198        1.39783723279217        1.16338067599970
H            3.32034795419809       -0.30163972538876        1.12868271298200
