17
 energy: -28.847999302497 gnorm: 0.000975640374 xtb: 6.6.1 (8d0f1dd)
N           -2.25866243572436       -1.44931795617565       -0.65249563846280
C           -1.29556253508892       -0.66950478727208       -0.10564151615715
N           -1.63503583216283        0.53855561482334        0.20769486748473
C           -0.89564498536701        1.51953627523366        0.73303879501584
N            0.17412357961214        2.04420108425943        0.26323181248877
C            0.95056881819928        1.47392742924806       -0.68084181515617
N            1.47833744967857        0.31594040801699       -0.69158930407554
C            1.18097474984251       -0.75820781543578        0.11798676835389
N            2.29874214439422       -1.35517762634034        0.63472578968072
H            2.22693178075234       -2.30689372611967        0.95133362135956
H            3.17826352451846       -1.07442332477390        0.23467156653491
C           -0.05037353758433       -1.32599386963120        0.24337617220344
H           -0.12647515417588       -2.34106570224622        0.60563098706177
H            1.27874578627997        2.15041165527731       -1.46798987377565
H           -1.36897059020283        2.04505077436240        1.56094510980291
H           -3.11735121655000       -1.01613004837062       -0.94375249102012
H           -2.03212673722134       -2.36666323855575       -0.99092365643910
