16
 energy: -25.099275621970 gnorm: 0.000607076994 xtb: 6.6.1 (8d0f1dd)
N            2.43967633709429        0.17790650927949       -0.75190467368234
C            1.26205955909728       -0.09459139454249       -0.10338773130065
N            0.78002524409911        1.00306504283967        0.58002804568601
C           -0.32572342221795        1.61272622766565        0.48403981596945
C           -1.43599657675157        1.30266429592935       -0.39144292999044
C           -1.86952536785098        0.03929518226093       -0.56253306412777
N           -1.61003062178342       -1.01749765377537        0.24611882400522
C           -0.53590877100502       -1.63690003890512        0.52055988525084
C            0.78039888064461       -1.36098644420100        0.01757405030855
H            1.42162617676250       -2.20021890804794       -0.20621766096743
H           -0.65617449050989       -2.50021488821613        1.17244279985882
H           -2.67104598772433       -0.17241873065666       -1.26486934703926
H           -1.94481024809327        2.13154707811731       -0.86010917197649
H           -0.41351214825927        2.49803232311820        1.11264151746616
H            3.02459042725302       -0.60292062646948       -0.99703520510933
H            2.91483905044483        1.02431202720354       -0.48405088275127
