20
 energy: -37.616888716545 gnorm: 0.000312115814 xtb: 6.6.1 (8d0f1dd)
N            3.73383889974960        1.69148977297203       -0.71826927565247
C            2.79360168498219        1.08531189998670       -0.45802021162085
C            1.62985694516728        0.34996266208829       -0.15304978171554
C            0.54346187428112        1.12800242150002        0.37240388958299
C           -0.79162281234421        0.91837250245647        0.25329193752981
C           -1.69514010039539        1.84768027547798        0.79493319877668
N           -2.47152974861960        2.58379527999730        1.21653505476181
C           -1.45057178266094       -0.15055073737719       -0.55892878889070
N           -1.28714729200927       -1.41005067603636       -0.41337351568343
C           -0.35615254289599       -1.98384014428666        0.40108151231800
N            0.92295873452477       -1.95276537347936        0.19936371680043
C            1.70048394582895       -1.01862164565676       -0.32141348001442
H            2.60972025511462       -1.41402154021056       -0.76453104487417
N           -0.83988611123422       -2.81643712582069        1.34318576808850
H           -1.81946935008728       -3.03831505532752        1.34591101742773
H           -0.19672682395130       -3.41159360002214        1.83515655592273
N           -2.31898813061437        0.30496062560011       -1.47390788354079
H           -2.58521870098326        1.27466429685140       -1.48955459265284
H           -2.82496085998194       -0.35606313700318       -2.03843314459810
H            0.84133005012925        2.05378420539019        0.85600318013453
