17
 energy: -29.634433585049 gnorm: 0.000741443422 xtb: 6.6.1 (8d0f1dd)
N            3.79401068418568       -0.17177645739496       -0.79392097000711
C            2.68886519556369       -0.08538722983180       -0.49012909502244
C            1.33654070069994       -0.01763301821749       -0.12690856552016
C            0.83631928080838       -1.04404565575003        0.79411679159039
N           -0.25678789225178       -1.66495387204277        0.70941106213475
C           -1.24062241736096       -1.58907066093386       -0.23585366651569
C           -2.04116297581908       -0.53681256039122       -0.43350635311217
C           -1.71915290394190        0.77420807624624        0.16201834773948
N           -0.61825629601491        1.40354398650599       -0.02126259928793
C            0.56347875263492        1.03349486203191       -0.52972270406048
H            1.00485891505627        1.78124771171573       -1.18223947456748
N           -2.70804635048382        1.39293192437976        0.83732343813975
H           -2.51834928660774        2.26953816773899        1.29186002867426
H           -3.57148414385467        0.91704089223334        1.02353567194573
H           -2.94390532914364       -0.61029947647145       -1.01769771295796
H           -1.44870099291732       -2.54781363772631       -0.69729102369857
H            1.47688668524709       -1.30996843049194        1.63130680252514
