21
 energy: -36.535495466386 gnorm: 0.000959758890 xtb: 6.6.1 (8d0f1dd)
N            3.58187731379901        0.51236598177020       -0.55117033139660
C            2.45795306449701        0.33901131451573       -0.35430668005088
C            1.10856409572546        0.11578240082680       -0.09532812967481
C            0.71911224319615       -1.24792710065924        0.29129957526827
N           -0.27230717984002       -1.91101966831519       -0.17397442799601
C           -1.29674621653509       -1.55525715155291       -0.97799642100253
C           -2.19757886417692       -0.57316795128310       -0.79029397564259
C           -2.04936997523622        0.44306956257354        0.24851598748714
N           -1.00638220525538        1.16061331781828        0.45943555362980
C            0.20564784571559        1.16124938745116       -0.14281848371223
N            0.57498044180227        2.36600446826543       -0.65806508251010
H            1.54854805191944        2.51968176088733       -0.86315048599107
H            0.00619513224745        3.16412298010269       -0.43397795482038
N           -3.15162149107014        0.71570336176725        0.98743876701294
H           -3.92356789601301        0.07366927528382        0.97679392242466
H           -3.05324952334538        1.33541368675373        1.77352786043549
H           -3.11286961695809       -0.55527691133733       -1.36171312051941
H           -1.47628056812008       -2.28847757321406       -1.75960787131971
N            1.54094931027183       -1.86455713545983        1.18083550618700
H            1.41331623489902       -2.85267518446164        1.32238611187712
H            2.46176274337695       -1.48432784463256        1.32210108471349
