20
 energy: -32.781786020206 gnorm: 0.000746032576 xtb: 6.6.1 (8d0f1dd)
N            4.09334251916230        0.28956079494113       -0.32395927683433
C            2.95545668041806        0.25196464140426       -0.15199263004954
C            1.56364125788012        0.16554392055652        0.00551814168513
C            0.82764326927724        1.31935707477935       -0.27218671473803
C           -0.49040004703865        1.70868180141795       -0.09813286046652
C           -1.72088529320088        1.04565126082501        0.06333558055870
N           -2.80133561761654        1.86388079384787        0.16531097040841
H           -3.72451874690269        1.48036722653071        0.25158123274213
H           -2.69297058864227        2.86182234335609        0.15457715574275
C           -2.03387850454812       -0.32327597356170       -0.08197352406364
C           -1.14282140355733       -1.37425805138904       -0.03723838568874
N           -0.06893181392404       -1.46924912202891        0.76642118138329
C            1.09001836309313       -0.94753407273857        0.76322494981495
H            1.79312868017635       -1.37526337059115        1.47647712589134
N           -1.46270808189477       -2.55424839108944       -0.64152429348753
H           -0.77379958630736       -3.28675278193774       -0.64488212042648
H           -2.16784777854363       -2.56539673942207       -1.35621000162492
H           -3.03785510440331       -0.53986697057955       -0.42391154108143
H           -0.61938447505064        2.78451488061717       -0.17273723748771
H            1.46712032832289        2.14247520686214       -0.58113819327785
