22
 energy: -36.239123678027 gnorm: 0.000829613018 xtb: 6.6.1 (8d0f1dd)
N           -3.58279920656210       -1.34509437604770        0.64506939919881
C           -2.54646934368157       -0.95746669942770        0.32138178758768
C           -1.29417988813612       -0.46981725633106       -0.06524395471077
C           -0.47477150634450       -1.36695672408326       -0.86421454447876
C            0.84043840865096       -1.57206500560056       -0.77027322147088
C            1.78357149696734       -1.00251278630589        0.20740532675201
N            2.58559877344947       -1.95647037534244        0.79894434249726
H            3.09657567412607       -1.67300544766526        1.61951295814583
H            2.21717615710684       -2.89318532849629        0.83111299212423
C            1.98903171669577        0.30812904289626        0.41362628725177
C            1.27596691345823        1.36282322705842       -0.31299585515095
N            0.01297443543786        1.56002161859473       -0.32654728657738
C           -0.96886965054372        0.82808601146513        0.26516630069389
N           -1.75681381337474        1.54886314262183        1.11964016306954
H           -2.66815548353208        1.17767310616422        1.33703406294379
H           -1.66661642308722        2.55005406484500        1.08178615471573
N            2.06296143431973        2.27831982976888       -0.93284295962507
H            3.02900100419440        2.06164151747057       -1.10110979403039
H            1.61594240904450        2.95846718748971       -1.52394573119128
H            2.77861131343925        0.63840320326053        1.07462482528973
H            1.29510729765255       -2.31627101218697       -1.41349850193103
H           -1.03147603698089       -1.98125493934673       -1.56448106440329
