16
 energy: -25.099275625471 gnorm: 0.000604549709 xtb: 6.6.1 (8d0f1dd)
N           -2.43987385226492       -0.17872308749813        0.75133923518670
C           -1.26219697250655        0.09422669648278        0.10312289135569
N           -0.77963974189108       -1.00320333679033       -0.58028583792416
C            0.32628646382650       -1.61251316976957       -0.48410346695829
C            1.43625634628094       -1.30217666971321        0.39166236696406
C            1.86932165130913       -0.03867706310332        0.56298924486189
N            1.60966573295391        1.01811183966044       -0.24561368834129
C            0.53540591686977        1.63719241158540       -0.52024623718636
C           -0.78092989152726        1.36079518427697       -0.01760647016469
H           -1.42249243296763        2.19979175473930        0.20610833330273
H            0.65554535953877        2.50060770928216       -1.17202127614035
H            2.67061121899971        0.17322733675014        1.26553041419993
H            1.94524403363445       -2.13093880350552        0.86035496947665
H            0.41450311260744       -2.49773102089952       -1.11277085982212
H           -3.02511181246177        0.60188397716437        0.99639858176325
H           -2.91468736490139       -1.02527088336197        0.48330403542633
