19
 energy: -33.076896622930 gnorm: 0.000999949871 xtb: 6.6.1 (8d0f1dd)
N            3.94638743800014       -0.50456900163538        0.57238374527407
C            2.84375306701464       -0.27411993665677        0.33976143039318
C            1.49184635007799       -0.02788843211930        0.06501490327033
C            0.88431350798660        1.09500467140667        0.57456288809550
N           -0.22517811149473        1.68246137801458        0.15345222380753
C           -1.42758962203022        1.30128593285770       -0.12162020210924
N           -2.24717527816159        2.22352118217929       -0.67532719483007
H           -1.86123102949630        3.10072595526088       -0.97684994696403
H           -3.17875776410017        1.97202731720651       -0.94890684112631
C           -2.01719805663002        0.04090019958787        0.28111322136960
C           -1.36519516084994       -1.13554645382537        0.10072964405449
N           -0.36923607196107       -1.33073366879942       -0.83003264416324
C            0.82778245771676       -0.92232020611318       -0.86495353164523
H            1.42578263201853       -1.30837937660825       -1.68836036172693
N           -1.77730881639751       -2.30320686741018        0.68321474110650
H           -1.47479788186729       -3.16031676332331        0.25207658646606
H           -2.67607783907936       -2.31308512093464        1.13297487436425
H           -2.98694482313132        0.06693322466562        0.75266585067777
H            1.45599495748490        1.71116774574707        1.26464925198571
