14
 energy: -28.883338899785 gnorm: 0.000376958459 xtb: 6.6.1 (8d0f1dd)
N           -3.48844319044293       -1.47802884343665       -0.00048872228196
C           -2.54271360067185       -0.82561549399071        0.00001363200892
C           -1.41579506255543       -0.00676040120665       -0.00043651190310
C           -0.09048844285027       -0.29334101160888       -0.00002989365986
C            0.61112748333562        1.04082939656929       -0.00053882522425
N            1.87520535674937        0.88000161147314       -0.00019933200499
C            1.98945123478846       -0.56592062088589        0.00055068460560
N            0.87194618151880       -1.24877374097881        0.00064709387483
N            3.20618179967611       -1.07664403133310        0.00106164087515
H            3.99522303720019       -0.45224772629698        0.00092446844744
H            3.32759729274793       -2.07565367077437        0.00157651603298
N           -0.31490525337794        2.07582141298277       -0.00126931309275
C           -1.45683308986238        1.49019664841455       -0.00119326759451
H           -2.37277035375567        2.05778794077226       -0.00163330318348
