17
 energy: -32.847981961629 gnorm: 0.000628146910 xtb: 6.6.1 (8d0f1dd)
N           -3.41858436200734       -1.49179483843676       -0.00238878950442
C           -2.40424559541809       -0.95358512660846       -0.00176646593093
C           -1.12860707641517       -0.38389606781628       -0.00188882986446
C           -0.73097885276059        0.90686395246301       -0.00155243808948
C            0.74809888400514        0.96677239761578       -0.00153400991100
C            1.06331784559442        2.27394815721857       -0.00111431819430
C           -0.24692155023012        2.97076310801199       -0.00091398922000
N           -1.26964749980171        2.18993459456013       -0.00117479154626
H           -0.36855333476110        4.04013713732459       -0.00056964372493
H            2.01757099377116        2.76170057770994       -0.00092229040837
C            1.22679283399577       -0.40089885062135       -0.00186114558102
C            2.55617105550141       -0.82120300892472       -0.00175009630942
N            3.64293521559129       -1.19654012460733       -0.00224040375751
C            0.12100873801708       -1.22067617776878       -0.00215712181627
N            0.06530869498657       -2.56015203216803       -0.00251098192409
H            0.91619656970654       -3.09678321497984       -0.00263450910603
H           -0.82129423007528       -3.03492560177247       -0.00266271951150
