14
 energy: -28.883277385610 gnorm: 0.000835339374 xtb: 6.6.1 (8d0f1dd)
N           -2.89424665061138       -1.80555679727476       -0.00335007813712
C           -1.91497477123182       -1.20270740081496        0.00101866071805
C           -0.79064255360747       -0.38562521068737       -0.00106891643102
C            0.53455157356117       -0.60391732037303       -0.00037058264881
C            1.19001528616412        0.76189540442578       -0.00123941965716
N            2.46847491217132        0.61835087666783       -0.00059974367513
C            2.62104276043265       -0.78259803955191        0.00066482477184
N            1.55732798723320       -1.52086359230238        0.00072289849338
H            3.61088668037792       -1.20219057193091        0.00142669416369
N            0.26103107783597        1.75472129803014       -0.00256628249664
C           -0.89207360530423        1.15186029853930       -0.00247375322422
N           -2.06369136483219        1.76058279825850       -0.00330373482248
H           -2.09265934110814        2.76813806267209       -0.00408530241910
H           -2.92073476788113        1.23029836094169       -0.00321243103530
