18
 energy: -37.366566171707 gnorm: 0.000166313506 xtb: 6.6.1 (8d0f1dd)
N           -4.21711188062415       -0.49823753284987       -0.00036018628259
C           -3.08723219229673       -0.70448866416490       -0.00040639727560
C           -1.72313428208628       -0.99090269350087       -0.00028315627205
C           -0.63503391322697       -0.17675931136151        0.00002988792050
C            0.53641149477535       -1.07956911548352       -0.00006682493632
N            0.13317096766752       -2.40972728627530       -0.00043004124438
C           -1.14753189003082       -2.37551057764787       -0.00055638418977
H           -1.74005063944203       -3.27326299562125       -0.00084991205333
C            1.66907881873061       -0.34296618233667        0.00021160573775
C            3.01342410929247       -0.72277348782086        0.00021216917804
N            4.13622571370949       -0.96248003961155        0.00031781145206
C            1.23952580559146        1.09939016035133        0.00052639879387
C           -0.14018002492254        1.17262169241915        0.00041812773982
C           -0.88856863160855        2.35296694041020        0.00065314870954
N           -1.46573410416493        3.34569633277779        0.00078153176270
N            2.12945697286785        2.09583556596684        0.00085122309488
H            1.81271335279204        3.05176103530497        0.00104773635771
H            3.11723571037623        1.90194991134392        0.00088680140716
