15
 energy: -28.608763166860 gnorm: 0.000883099469 xtb: 6.6.1 (8d0f1dd)
N           -3.37837189128604       -1.58915541045229        0.00067781092331
C           -2.47020835161173       -0.88505819449988       -0.00115828473733
C           -1.39531316408658        0.00063550567357       -0.00042305356950
C           -0.05363707561895       -0.20903061971953        0.00054664057313
C            0.57267612075571        1.14260652865694        0.00008783888916
N           -0.41692486651200        2.12891038157408       -0.00096457904532
C           -1.52736926278307        1.49068592669244       -0.00124202292694
H           -2.47352033622455        2.00468623267738       -0.00214258225597
C            1.89500506577008        0.95703365309555        0.00088058204252
C            2.03917116219989       -0.54527260464719        0.00183109704063
N            0.90278960709198       -1.18818806533472        0.00157854330563
N            3.22618177928198       -1.14887097602710        0.00280836573516
H            4.07997555760480       -0.62027324721827        0.00296406416421
H            3.25547551778136       -2.15462730149028        0.00342962787650
H            2.71257125823713        1.65004492871931        0.00089366048481
