18
 energy: -32.576411694626 gnorm: 0.000397711196 xtb: 6.6.1 (8d0f1dd)
N           -3.15829690171510       -1.85037981011765       -0.00064534139922
C           -2.45061381010469       -0.94515134398813       -0.00016004212419
C           -1.62150669918572        0.17804062042300       -0.00016789175457
C           -2.13779029339715        1.58159341827999        0.00008355960357
C           -1.11615885563721        2.44808962294441        0.00024215429112
C            0.11802942677538        1.66779643008127        0.00013093289028
C           -0.26689607075072        0.24870139443481       -0.00014971421241
C            0.95183438505901       -0.53077517042534       -0.00030050464164
C            1.08008610951783       -1.91788393460552       -0.00068786335177
N            1.24125859197395       -3.05682750152570       -0.00077605751251
C            1.99463969501373        0.37473770493661       -0.00011728924834
C            1.45753356264138        1.75582026198401        0.00015468169171
H            2.08192801708310        2.63116066178607        0.00032281189941
N            3.31264402868662        0.10855070197313        0.00004505152569
H            3.98920276520076        0.84994671438167       -0.00066120124186
H            3.62760179899056       -0.84636609861822       -0.00063824287550
H           -1.16760331302004        3.51984220119925        0.00045383898825
H           -3.18909990733169        1.80384627235635        0.00014523277197
