16
 energy: -32.352938078146 gnorm: 0.000290168692 xtb: 6.6.1 (8d0f1dd)
N            2.93728108868683        2.20236341310403        0.00032640217485
C            2.07532873223147        1.43932677168303        0.00133772661488
C            1.10385714540480        0.44859426193199        0.00279072690754
C           -0.25353069329271        0.46385123301886        0.00319716912306
C           -0.67356333869322       -0.99383469170332        0.00494454413516
N           -1.96206541284735       -1.06830976088207        0.00543505385652
C           -2.34008864303860        0.29344278994564        0.00409859119262
N           -1.37463327901315        1.20587038819375        0.00278784390536
N           -3.62724816557366        0.59072563793854        0.00418917806299
H           -4.29870373942771       -0.15772074900717        0.00521384412476
H           -3.91293822422432        1.55499264667187        0.00323330390528
N            0.39264479935964       -1.81990018237537        0.00549148694246
C            1.43833851750418       -1.01610635317606        0.00428097942805
N            2.68641697371334       -1.45148954773711        0.00434279290593
H            3.45417978915156       -0.79924315732523        0.00338178625273
H            2.86016489735886       -2.44350532848137        0.00535965746777
