14
 energy: -24.085776098129 gnorm: 0.000242090604 xtb: 6.6.1 (8d0f1dd)
N           -2.96155601501483       -0.03159949019105       -0.00025495796705
C           -1.62422256062354       -0.06435376440148       -0.00039342874563
N           -0.92800884649024       -1.16124396700696       -0.00024156422599
C            0.38986566084993       -0.74259265086339       -0.00026815283362
C            0.46077020567831        0.74436347555731       -0.00044256964162
N            1.79937099296920        1.15522893817961       -0.00049478791887
C            2.47035819880178        0.05773802894465       -0.00037131989677
C            1.66074765751690       -1.17992909892687       -0.00023944673399
H            2.06000865268822       -2.17429283849314       -0.00013470841656
H            3.54793485592842        0.07451748141981       -0.00038111650022
C           -0.79473414422191        1.19656744825082       -0.00053161611688
H           -1.19590838833409        2.19109443612390       -0.00066144439718
H           -3.46760320233748       -0.89985107788956       -0.00053984812829
H           -3.45935301171065        0.83954767429637       -0.00110257937735
