17
 energy: -27.263240337211 gnorm: 0.000583032507 xtb: 6.6.1 (8d0f1dd)
N           -1.83493274565036       -1.85011273657372        0.05832869600847
C           -1.32773456063686       -0.59855224049879        0.02694102781492
N           -2.14203501571336        0.46939622625780        0.06165744016980
C           -1.35063388836836        1.56870128727632        0.04565356405499
C           -0.00778561462096        1.23465263026567       -0.00138329411153
C            0.03831471146027       -0.19589457088609       -0.00006389139976
C            1.37858116992465       -0.58151037297010       -0.01022086785404
N            1.90245159402762       -1.82846225608100       -0.02136074269219
H            1.32075733339637       -2.61264047849266        0.21784717795054
H            2.89176238830759       -1.93163637702563        0.13029265171516
C            2.16397565074843        0.62462932301384       -0.04366175598599
C            1.33432339601988        1.71374940299081       -0.03414176006084
H            1.64078075622146        2.74409486383434       -0.04892593330373
H            3.23943229765037        0.63565162651309       -0.06473304028852
H           -1.80808464936722        2.54232753736096        0.06708277549831
H           -2.83262112440488       -1.92221584119027       -0.05827916421925
H           -1.27348432179470       -2.62087242899462       -0.25898270619642
