12
 energy: -24.638159171704 gnorm: 0.000295413043 xtb: 6.6.1 (8d0f1dd)
N           -2.87149192163963       -0.00600423570976       -0.00304617686094
C           -1.56071559094593       -0.07837706331527       -0.00192020974677
N           -0.82800343782417        1.17248556657443       -0.00205631369495
C            0.38028890228614        0.75811571117043       -0.00081235362724
C            0.40938337866570       -0.77228841802572        0.00012017729760
N            1.63758119887450       -1.16860620102529        0.00136796374878
C            2.34060829831685        0.04813502356660        0.00124629821429
N            1.68466776565350        1.16965184438698        0.00001968701356
H            3.41708951292405        0.02434607279147        0.00210861187079
N           -0.86606229342084       -1.19788757498617       -0.00068068599718
H           -3.30779937585524        0.90216996528121       -0.00394741206828
H           -3.41885748203494       -0.85194905850891       -0.00299767254964
