16
 energy: -33.118674929051 gnorm: 0.000479765487 xtb: 6.6.1 (8d0f1dd)
N            3.56430163476839        1.34624052377187        0.00002133136144
C            2.50858411347860        0.89491947272490       -0.00018804910242
C            1.19536438738204        0.41522289282181       -0.00021177632192
C            0.75083307772711       -0.94431586716498       -0.00047876475072
C           -0.75653823011397       -0.93238444062904       -0.00046992859965
N           -1.15900696940489       -2.24636769338101       -0.00077125529114
C           -0.04459574594227       -2.90287950393957       -0.00089442359160
N            1.15997300775693       -2.16581589137066       -0.00072556906853
H           -0.00474399176368       -3.97680907776606       -0.00111589077413
C           -1.18741402910831        0.34359791250674       -0.00024246848011
C           -2.46739224100245        0.89726906778702       -0.00040841850125
N           -3.48912513908363        1.42284679517302        0.00037723833613
C            0.06016474540600        1.20773628173439       -0.00003813700095
N           -0.02354289507127        2.53330463216476        0.00020429165602
H            0.81624626248044        3.09158689518275        0.00031244095239
H           -0.92195142970903        2.99072026758407        0.00030708417642
