20
 energy: -34.443647336995 gnorm: 0.000632701932 xtb: 6.6.1 (8d0f1dd)
N           -2.33888449315821       -1.89215868220338        0.00072394730243
C           -1.08947579250406       -1.35451991258149        0.02081209268731
N           -0.00260558950399       -2.15767727851910        0.00303389961627
C            1.08643460486686       -1.35749714036720       -0.01611855473456
C            0.72007677406446       -0.00094608601048        0.00068319646275
C           -0.71944711777397        0.00100307057956        0.00167946694180
C           -1.08583017732803        1.35751982632279       -0.01694401948185
N            0.00323525413540        2.15773161730046       -0.00067219192204
C            1.09013076537765        1.35460340449994        0.01697661727907
N            2.33951509699419        1.89221212968033       -0.00577174892530
H            2.37973336277811        2.87831730228239        0.19659278918463
H            3.09251370246156        1.33242539715919        0.35731031074003
N           -2.33375458940890        1.89854654209243        0.00487908549205
H           -2.37130491414541        2.88440835701630       -0.19917584023542
H           -3.08826669766410        1.34017716425998       -0.35724233147983
N            2.33438366486148       -1.89848001217425        0.00489737783204
H            3.08840964189331       -1.34072146916388       -0.35917105964849
H            2.37167421896108       -2.88469276798124       -0.19749939125760
H           -2.37884249260987       -2.87791748766056        0.20481700984383
H           -3.09139746259745       -1.33173723343189        0.36383145060285
