20
 energy: -36.028837312868 gnorm: 0.000731274268 xtb: 6.6.1 (8d0f1dd)
N            3.86721954423337        1.67647407779121        0.00140935728429
C            2.91905662676303        1.02284176696963        0.00008009723217
C            1.79684896443089        0.20331177668646        0.00072919341106
C            0.41014463606951        0.61694756952036        0.00101600038323
C           -0.41009956934320       -0.61693726599609        0.00111379059043
C            0.40401783106343       -1.68502616227955        0.00112940409978
C            1.79303368684555       -1.18006122624056        0.00094237972636
N            2.85813905894406       -1.99566763661721        0.00082265979977
H            2.74097275460708       -2.99282383689338        0.00089050458612
H            3.78632575354359       -1.60874029712358        0.00061587545963
H            0.15210086917984       -2.72936983823591        0.00119676750478
C           -1.79680002771911       -0.20331852280282        0.00090776637917
C           -2.91897131235124       -1.02294660269648       -0.00009035806117
N           -3.86717873837075       -1.67684117968447        0.00250053042861
C           -1.79300126900153        1.18004699171415        0.00114515851945
C           -0.40398209639757        1.68502546448720        0.00105513996788
H           -0.15206918806443        2.72936754002069        0.00092303618138
N           -2.85811320002095        1.99563832766293        0.00115494215507
H           -2.74095545014908        2.99279367212555        0.00116714585729
H           -3.78629595236247        1.60870180619190        0.00118087479474
