18
 energy: -31.782962909007 gnorm: 0.000454708517 xtb: 6.6.1 (8d0f1dd)
N           -2.89969185421134       -2.22998750538067        0.00026605615397
C           -2.06445406574250       -1.43529797766810       -0.00036799551754
C           -1.12014133338411       -0.42171122509237       -0.00041087626017
C            0.23973296546152       -0.42424180121493       -0.00009559776525
C            0.64218513145271        1.01930711467260       -0.00053398175499
N           -0.46274088076141        1.84325058958769       -0.00100185114675
C           -1.48732367560329        1.04405497883295       -0.00097422868501
N           -2.76018059194202        1.44501040875670       -0.00136241330242
H           -3.50650683093500        0.77185942419504       -0.00134852078591
H           -2.96481507949321        2.42880037065013       -0.00173366926550
C            1.97952948107971        1.08808472416473       -0.00025186340171
C            2.47076228320795       -0.31573336970459        0.00031314539215
C            1.42176969015443       -1.20161964849482        0.00036482554282
H            1.48279984294762       -2.27224587499613        0.00074351614166
N            3.78601400909785       -0.59573950408387        0.00072478941794
H            4.10260508824533       -1.54887951937842        0.00108883858203
H            4.46485147730348        0.14357025991145        0.00059610168354
H            2.62061213252225        1.94804171564258       -0.00034473022890
