15
 energy: -28.605285305331 gnorm: 0.000829390585 xtb: 6.6.1 (8d0f1dd)
N            3.50708857159507        1.53010006487297       -0.00216098808344
C            2.62182294865691        0.79767108818506       -0.00216774887050
C            1.52870198984810       -0.06777192861898       -0.00078479122289
C            0.12200001203814        0.31502675464474        0.00118750845938
C           -0.58010805831135       -1.01959534872487        0.00156458846491
N           -1.93642369837076       -0.85576125786658        0.00329417698281
C           -2.12061357030970        0.43307227820396        0.00399768051827
C           -0.83145580752574        1.24122831955535        0.00271250428714
H           -0.79132946182846        2.31352460038703        0.00306614149866
N           -3.31553650149060        1.01060749214649        0.00568879969796
H           -3.41337359757097        2.01094247277277        0.00620059669484
H           -4.13602482477114        0.42692390996993        0.00648888777939
N            0.23977769293313       -2.00957685198003        0.00018157755945
C            1.52074132015899       -1.43369690715939       -0.00122354132358
H            2.37286148254837       -2.08971885288845       -0.00258550814240
