18
 energy: -31.785710705718 gnorm: 0.000529568919 xtb: 6.6.1 (8d0f1dd)
N           -2.82679082709349       -2.34468283724211       -0.00140195790281
C           -2.08113873552390       -1.46591419980407       -0.00080213617919
C           -1.21340924689494       -0.38244389287218       -0.00033788476993
C            0.23119637940575       -0.41628455731492        0.00013383302611
C            0.69527714838407        1.00063735090259        0.00047432888183
N            2.07037748916733        1.06388684039049        0.00097694382959
C            2.45743753835696       -0.18327425990549        0.00102106584576
C            1.33650865348953       -1.17304891843459        0.00051990064205
H            1.46449052505124       -2.23783696514464        0.00048814393526
N            3.74142643499715       -0.55387044264498        0.00146754879307
H            4.45306709172893        0.15560189145836        0.00174890459890
H            3.99889960574356       -1.52377983328696        0.00142186630254
C           -0.37458773721922        1.81477779464417        0.00011505921671
C           -1.57208161721783        0.95571849405441       -0.00040450751401
N           -2.81882904771175        1.45418515354218       -0.00070128293147
H           -2.97368721943150        2.44596349957072       -0.00134860453899
H           -3.60783606330705        0.83093218302373       -0.00147749938999
H           -0.41137594682479        2.88745969636331        0.00016806285453
