15
 energy: -29.396652315335 gnorm: 0.000502677798 xtb: 6.6.1 (8d0f1dd)
N            4.17960256711094        0.36686886041518       -0.00003694997361
C            3.06395820076838        0.09447723872907        0.00086697778077
C            1.71443951737134       -0.25754644295034        0.00030285047124
C            0.59351820209722        0.50538988423571        0.00008185419253
C           -0.53098353484474       -0.43051465332138        0.00021232980102
N           -0.07763756580787       -1.74587443016128        0.00062949859455
C            1.19726143657768       -1.67551476443438        0.00057107931751
H            1.82539354863648       -2.54753494251024        0.00085842307608
C           -1.68607494528083        0.28355981183964        0.00027909636749
C           -3.00940529884486       -0.16687866839990        0.00178975407769
N           -4.10562437085996       -0.50757440776750       -0.00136213627211
C           -1.30271914029037        1.72848934083437       -0.00017031982384
C            0.03341129720371        1.85272272201775       -0.00033784554465
H            0.60805524926636        2.75900588707909       -0.00038665029115
H           -2.03524006100347        2.51411700469419       -0.00009243077353
