25
 energy: -50.692616516487 gnorm: 0.000963693053 xtb: 6.6.1 (8d0f1dd)
N           -3.41744271679240       -3.29417149597620       -0.00733007313670
C           -2.96241228597979       -2.23885271788567       -0.00802375508917
C           -2.50053640123063       -0.92206037055322       -0.00685173306618
C           -3.30747577895892        0.20394043386985       -0.00807542445405
C           -2.46464241917138        1.40313996287743       -0.00692051744300
C           -1.16847800472187        1.01259303579015       -0.00475947590296
C           -1.13223837113110       -0.47576371088987       -0.00460254714856
N           -0.05780774503466       -1.19144041929332       -0.00301753312861
C            1.10430235017763       -0.49277623391026       -0.00115384720437
C            2.39866929644925       -0.94636176584124        0.00057094240695
C            2.93417448012412       -2.22833589286664        0.00019858410001
N            3.46454245478860       -3.24883283317407        0.00448619617986
C            3.23130094045377        0.28915730801213        0.00198341247792
N            2.51316338281597        1.37844514979611        0.00082182659823
C            1.20450588146567        0.98157275538986       -0.00109785384068
C            0.06697780394528        1.74360093487053       -0.00316227820902
C            0.05860266322985        3.15211387542666       -0.00530981806865
N           -0.00210790952262        4.29760050318054       -0.00135571109368
N            4.56298297945245        0.26422736350752        0.00397385222901
H            5.06026653506213       -0.60988124083337        0.00477968691569
H            5.06576191766211        1.13532457208069        0.00472494424030
H           -2.84531027038120        2.40846365021138       -0.00768854788457
N           -4.64488785720188        0.24594412067531       -0.01017969985879
H           -5.13387198584902        1.12385029734060       -0.01096073405441
H           -5.17100869515131       -0.61219980020491       -0.01092005686457
