18
 energy: -34.229570112369 gnorm: 0.000368235845 xtb: 6.6.1 (8d0f1dd)
N            4.13805875106730        0.13923089427034        0.00012769057789
C            2.80773085902541        0.07424785250249        0.00003438335729
N            2.03247207950568        1.11985295201623       -0.00117973092337
C            0.74651570402705        0.65008686207924       -0.00081533924762
C            0.75470627212865       -0.85860879994149        0.00081467267892
C            2.05407953454793       -1.21171245123514        0.00136433370346
H            2.50379772299003       -2.18673613754751        0.00251908102595
C           -0.48736878492905       -1.57267413084877        0.00145992743870
C           -1.58112972931415       -0.78603654113849        0.00053793548655
N           -2.93675222569868       -1.08006827977803        0.00068183198668
C           -3.50828152276420        0.07647637636703       -0.00071661908026
N           -2.68083990465238        1.19834341435193       -0.00189766633401
C           -1.48054385197411        0.70115769310306       -0.00111359008759
N           -0.30648531575269        1.38556348889571       -0.00171920797689
H           -4.57560292637656        0.20136779249736       -0.00100773953226
H           -0.52056515625904       -2.65258295589441        0.00255409968531
H            4.70322664618368       -0.69112935261046        0.00099297811465
H            4.57435732764515        1.04591281911090       -0.00085233217338
