23
 energy: -46.461967580870 gnorm: 0.000908476310 xtb: 6.6.1 (8d0f1dd)
N           -4.01688595352719       -2.57912208384188        0.00119417354731
C           -3.23796301609163       -1.73185416036495       -0.00250901034070
C           -2.35792040089469       -0.65850010412245       -0.00171857195904
C           -0.98615359029085       -0.61777305816265       -0.00188227334904
C           -0.64660526838798        0.82624979292868       -0.00224862476186
N           -1.77906135824112        1.59311164693693       -0.00199165949377
C           -2.78993067552941        0.76961657284934       -0.00156365848928
N           -4.06660408100833        1.14334486852072       -0.00126640176232
H           -4.28478235992463        2.12554081321602       -0.00130560281270
H           -4.80502498620774        0.46037086916840       -0.00097771328177
C            0.65062796204955        1.25720623197248       -0.00299416156808
C            1.01548218861008        2.61632043355546       -0.00468745515808
N            1.32724599218242        3.71989185133171       -0.00199959444632
C            1.65691778817270        0.23056326032741       -0.00302904132909
N            2.94623889252222        0.34573093725883       -0.00367972206830
C            3.39512643347438       -0.99452128282768       -0.00351768639427
N            2.46320248439607       -1.91493480030312       -0.00294424093211
C            1.29480024220362       -1.21448149828154       -0.00259583816523
C            0.00218455800955       -1.63178455219771       -0.00211109722015
H           -0.27177115314650       -2.67459967200979       -0.00193324769881
N            4.70368575708959       -1.22242029841274       -0.00399448366894
H            5.33288729053816       -0.43895398210113       -0.00441554267527
H            5.04472224120171       -2.16743729694027       -0.00392998947214
