20
 energy: -37.688904767193 gnorm: 0.000635147009 xtb: 6.6.1 (8d0f1dd)
N            4.52270336028186        0.03867915957116       -0.05061360162276
C            3.18041465123116       -0.01677346430651        0.00357526302765
N            2.44408648747809        1.10087516073299        0.01305807674217
C            1.17377767277445        0.72531032984664        0.06434292383470
C            1.08810969838157       -0.78800310181789        0.14670285590228
C            2.38992484249454       -1.20270744544380       -0.00814144987924
H            2.73838919435706       -2.20904355571663       -0.12648879926946
N           -0.08504667982152       -1.37146320480986        0.12142453016992
C           -1.17409228385537       -0.72521462029950       -0.11629298094478
N           -2.44440578929024       -1.10077974516246       -0.06499123853376
C           -3.18073347638330        0.01687002015439       -0.05551012886070
C           -2.39024259951945        1.20280288115223       -0.04379485004129
C           -1.08842510243450        0.78810071081325       -0.19864193238661
N            0.08473420243947        1.37155864154208       -0.17335554507351
H           -2.73870881335757        2.20913638107827        0.07455598838991
N           -4.52302460687485       -0.03858282069873       -0.00131434138247
H           -4.96970391859030       -0.93641825072361       -0.03850711072660
H           -5.07058057516216        0.80057728430578        0.02438461425692
H            4.96938250740755        0.93651564997267       -0.01342706845886
H            5.07025972294351       -0.80048128149046       -0.07632035954352
