19
 energy: -38.758870895964 gnorm: 0.000645523290 xtb: 6.6.1 (8d0f1dd)
N           -3.94298533642304       -2.19247629773205        0.31105248864565
C           -3.25906947424248       -1.28255595812459        0.15290875316164
C           -2.46889173333552       -0.14996720125696       -0.03187960782346
C           -1.09105355792681       -0.07312324459610       -0.20285127852235
C           -0.79910049817306        1.37436501188680       -0.18679688139766
N           -1.97059321167706        2.07429964185560       -0.20551237089569
C           -2.93816902436248        1.21909838222007       -0.09821504434177
H           -3.96854366042221        1.52479422399279       -0.09472272059882
C            0.47121545064015        1.78132721403029        0.10260639947656
C            1.47810057965157        0.79899139237121        0.11982732571045
N            2.77251490632349        0.84980176979349        0.01749030941687
C            3.18096334505058       -0.48428061951851        0.00976718788768
N            2.21133793602477       -1.38129432058913       -0.04464405661263
C            1.08413500214041       -0.66304560594074        0.00713277401431
N           -0.13923553133150       -0.99293652144642       -0.19779949270150
N            4.47583171432656       -0.77705633808404       -0.01295651563880
H            4.76221158407469       -1.73826442259640       -0.07518949421670
H            5.14810223048082       -0.03041964149061       -0.01309034852769
H            0.68744410718028        2.79525128382483        0.40428973776444
