22
 energy: -37.122049412313 gnorm: 0.000691464360 xtb: 6.6.1 (8d0f1dd)
N            4.64726054498739        0.16214152423388        0.05372964359359
C            3.29033934448931       -0.01044847467857       -0.00422050850620
C            2.58160588023460       -1.17083661804044       -0.00022361972540
C            1.17816806511446       -0.83413435896460        0.00430962276673
C            1.09436735197484        0.63717151550877        0.00043121778491
C            2.36430413880517        1.12305464696383        0.00066229761982
H            2.66191228397963        2.15498189146776        0.00489296711204
N           -0.07137498582812        1.34620320080015       -0.00209590471855
C           -1.14408108092376        0.63666840833251        0.00232135392367
N           -2.42522115076815        1.13430907504137       -0.00426190986724
C           -3.21385820051654        0.09551389923016       -0.00725453481704
C           -2.49126685130543       -1.18807984996002       -0.00312100618390
C           -1.17938985172463       -0.85840604569731        0.00439077261243
C            0.04979603631655       -1.58295142332078        0.00798673532876
H            0.05361721980439       -2.66503721076974        0.01539290004900
H           -2.95665328517312       -2.15620017208948       -0.00497667083501
N           -4.55364410259661        0.19067991485428        0.01786028918684
H           -5.12664643767210       -0.62072796008057       -0.12824026864984
H           -4.96070415489068        1.10614341520766       -0.06106865481393
H            2.97185530086423       -2.17071071142562       -0.00036372141650
H            5.21729851712016       -0.63516696027420       -0.17593679787053
H            5.00644587130843        1.05381000606100       -0.24407525607363
