21
 energy: -42.993102775278 gnorm: 0.000799579437 xtb: 6.6.1 (8d0f1dd)
N            2.24081909420438        3.60274826992446       -0.05401801676497
C            1.84386470129769        2.52566369387895       -0.02672692278893
C            1.43040136090839        1.19060295807466       -0.00373617627924
C            2.27786198231653        0.09200653009247        0.04372038589847
C            1.46278248973215       -1.13029739836255        0.05125256705014
C            2.00031517926020       -2.40751766905015       -0.09700631098987
N            2.48683356030959       -3.44546219152204       -0.18576645365868
C            0.13192361786890       -0.77256859216492        0.11168005565993
C            0.08337071823817        0.70721914331113        0.03364782729345
N           -1.03640070940988        1.33288638705691       -0.07926249533489
C           -2.17888631392602        0.67926256501790       -0.08611262857911
N           -3.39802354257394        1.06369020104506        0.16928058328064
C           -4.17287946248019       -0.05317192081424        0.00496686491104
N           -3.52919317491828       -1.16481242322287       -0.21112180149007
C           -2.22336428136526       -0.81844759460254       -0.23030777141143
C           -1.07522958325856       -1.49684630320832        0.05404615811000
H           -1.10534159463880       -2.54584165817704        0.31307448700874
H           -5.24224589576705        0.00536913143327        0.07559567527868
N            3.61502848784118        0.08127587494609        0.03634023851815
H            4.12315479219086        0.94890213136989       -0.00817418376978
H            4.12036983147022       -0.78867186492565        0.05009904885722
