20
 energy: -39.269692405869 gnorm: 0.000868921560 xtb: 6.6.1 (8d0f1dd)
N           -4.64158451074366       -1.31715273788074       -0.12897077420914
C           -3.75955049832373       -0.58477011664299       -0.04907068128142
C           -2.70389894990519        0.31676788349235        0.09123097557331
C           -1.33830070641297       -0.03694675743141        0.13422051371822
C           -0.58604503614127        1.22396196823636       -0.05093070967066
C           -1.53448391164834        2.27794161215372       -0.04080315033676
C           -2.79440071177123        1.73156346600944        0.03327787333192
H           -3.72162168612819        2.27334118436925        0.03711130479691
H           -1.27621175463232        3.31773902384986        0.02578681398797
N            0.69653642684087        1.16705159060149       -0.23659311604353
C            1.33833032134914        0.03686757470669       -0.13592988783978
C            2.70392695982229       -0.31682003574176       -0.09298821269547
C            3.75949922563067        0.58478808266653        0.04698079876829
N            4.64176002765287        1.31686051801051        0.12704125875043
C            2.79444953462255       -1.73162152407891       -0.03496349156962
C            1.53453457169552       -2.27800985410450        0.03913858176444
C            0.58608941055341       -1.22402912372502        0.04923212671620
N           -0.69649954139269       -1.16712187786349        0.23485404844270
H            1.27626901576392       -3.31781727370286       -0.02744023628521
H            3.72167547366838       -2.27339498882456       -0.03885515601891
