20
 energy: -38.485935049816 gnorm: 0.000556705760 xtb: 6.6.1 (8d0f1dd)
N            4.10078854158485        2.13849337321575        0.00162383704731
C            3.38008342872312        1.24260731653832       -0.00146947937261
C            2.52412057805963        0.14478475417610        0.00010539474778
C            1.14832194060268        0.11173241236263        0.00032992812791
C            0.80090054526851       -1.31605235786231        0.00060198742779
N            1.97005500317188       -2.08922785956151        0.00093984443992
C            2.95180367949330       -1.26970951132078        0.00067458211931
H            3.97594573103709       -1.59790067710437        0.00058198367782
C           -0.47225138789889       -1.75683859771727        0.00055610801237
C           -1.48331936104473       -0.73532906002507        0.00024677056069
N           -2.77327720171446       -0.86325557590605        0.00013388940052
C           -3.23625371463836        0.47647870188858       -0.00014658777784
N           -2.31464142661022        1.39944132814384       -0.00021893675495
C           -1.13487069875358        0.70407338802631        0.00001544773364
C            0.15469295708300        1.12775134227272        0.00000054981574
H            0.42675772457083        2.17107817661859       -0.00022608425467
N           -4.55186481686125        0.68858315053117       -0.00028575696234
H           -5.17261250923119       -0.10049096343512       -0.00036437653538
H           -4.90260112761039        1.62934733691432       -0.00060139655576
H           -0.74093993153185       -2.80049060325582        0.00073800130277
