24
 energy: -46.181830873431 gnorm: 0.000546791842 xtb: 6.6.1 (8d0f1dd)
N           -0.11404330021883       -4.01833880902868        0.00263541588135
C           -0.14785177755051       -2.87100147238891        0.00230509646932
C           -0.11906537172210       -1.46464099329112        0.00248293363277
C           -1.24136634324339       -0.68463361160878        0.00237839227653
N           -2.55073531815669       -1.08097010643123        0.00223062797796
C           -3.26120931641923        0.01976475272535        0.00209234152293
C           -2.43214120208319        1.23505776817880        0.00205755435476
C           -1.15184852400521        0.78919705053152        0.00228640841831
C            0.11912656637964        1.46465925007441        0.00219723419650
C            0.14790964172282        2.87101705172429        0.00060042758267
N            0.11409592991442        4.01833683462626        0.00395120636347
C            1.24142900805959        0.68465121959262        0.00250094501702
N            2.55079650835584        1.08098884525397        0.00245049614490
C            3.26126865483760       -0.01974808505039        0.00266005172785
C            2.43219891293136       -1.23504167286414        0.00270217736078
C            1.15190936565394       -0.78918025900085        0.00257623901642
H            2.79770418471492       -2.24344929225878        0.00281017272382
N            4.59808823468429       -0.02840334854352        0.00277617207428
H            5.08578774782160        0.85043430594399        0.00289242829566
H            5.11150305770633       -0.89073562681049        0.00311224438405
H           -2.79764856403041        2.24346432628005        0.00194097002039
N           -4.59803352852254        0.02841826574945        0.00194971724611
H           -5.11144991496476        0.89074956552145        0.00199099668605
H           -5.08573203616553       -0.85041976252531        0.00204564882611
