23
 energy: -41.660604538557 gnorm: 0.000947364286 xtb: 6.6.1 (8d0f1dd)
N           -0.06207426580638       -3.59940937667839        0.00100054128603
C           -0.10697941932629       -2.45204318073232       -0.00149564396512
C           -0.09446046880940       -1.04645792393774       -0.00241536070953
C           -1.22327022106398       -0.27771219262263        0.00338602918148
N           -2.53010628135430       -0.69045272306459        0.01053012868387
C           -3.24986794595327        0.40401295032511        0.01513678214423
C           -2.43540236379236        1.62508131024287        0.01111523591943
C           -1.14537608892288        1.19898786724602        0.00396612940908
C            0.10901629262080        1.87904033708582       -0.00218989499383
C            1.22856472298863        1.11875188969236       -0.00799661587248
N            2.54539037159727        1.53657862954608       -0.00901209351276
C            3.26581014026898        0.44942379604262       -0.01050840083214
C            2.45546959479773       -0.77929198257262       -0.01009068945643
C            1.16931994092243       -0.35266348614231       -0.00746552693311
H            2.83846556852044       -1.78183814736371       -0.01260654249849
N            4.61055516366688        0.44800462043840       -0.04982267764128
H            5.11727214422450       -0.40242951186775        0.11741143262018
H            5.08501760906998        1.32882895561737        0.04590090569266
H            0.14884202785200        2.95674532581714       -0.00245201915152
H           -2.82062821265688        2.62646405426024        0.01349920231750
N           -4.58978626221150        0.39667849040864        0.02184051098000
H           -5.11349962679780        1.25200496575872        0.03273525604999
H           -5.06449607513463       -0.48861579989936        0.02876254348223
