22
 energy: -37.939788072961 gnorm: 0.000525670592 xtb: 6.6.1 (8d0f1dd)
N            3.34731380095889        2.43913466462181        0.00953691523010
C            2.63966749595522        1.53090501868040       -0.00961579595570
C            1.83168298405976        0.40282369441123       -0.02090129831284
C            2.32826387864271       -0.98615103372406       -0.02212838829999
N            1.36147434833752       -1.85730736684914       -0.01673688332937
C            0.18060363861055       -1.13990580606931       -0.01568651575575
C            0.45354297228500        0.28718845096088       -0.01709118209514
C           -0.59865752997857        1.24713392141330       -0.01221885857631
C           -1.86568275552587        0.76679379527471       -0.00424112660823
C           -3.15798324809751        1.44642565008555        0.00333706979077
C           -4.12468632659540        0.50227325893127        0.01107150464065
C           -3.51254245319145       -0.80506132611104        0.00889257982687
C           -2.14601055399218       -0.65841377791462       -0.00050278135392
C           -1.09576124603912       -1.61501016290097       -0.00670842674067
H           -1.30645881372858       -2.67257882973447       -0.00401597024020
H           -4.05608385984663       -1.73290392678436        0.01377709984702
H           -5.18649447307189        0.66696704841574        0.01809763476102
H           -3.28082267297885        2.51303289644734        0.00254123949735
H           -0.36964936088723        2.30374380149757       -0.01464959907616
N            3.63809432086490       -1.30188387423863       -0.07477057731130
H            3.88910158854368       -2.26747615236872        0.04423922690609
H            4.32739618027500       -0.59426337844439        0.11015170245573
