20
 energy: -38.483226768875 gnorm: 0.000673319874 xtb: 6.6.1 (8d0f1dd)
N           -3.38164373430690       -2.41179526979450       -0.00337817130354
C           -2.64652037881190       -1.52710198078323        0.00079296190407
C           -1.81996756799493       -0.40930115639269       -0.00040488156394
C           -2.32330428173670        1.00365129019234       -0.00093797200060
N           -1.35746052863561        1.86469443953023       -0.00064396272340
C           -0.17552861991864        1.14793186815728        0.00000229333898
C           -0.45688628643316       -0.29853512156352       -0.00010798801048
C            0.58813212256801       -1.27862696174319        0.00042350806196
C            1.84527315453615       -0.79059243055604        0.00089934164451
N            3.07495721880690       -1.43546848514143        0.00139775651229
C            3.93492446337969       -0.47681586423682        0.00174971016003
N            3.42788370596222        0.82584663349577        0.00156869500915
C            2.13632848330059        0.66143951341358        0.00101416986528
C            1.08969018614587        1.63142981471423        0.00055203565933
H            1.31372071431387        2.68472826149906        0.00064395458492
H            4.99684478046226       -0.63816323502066        0.00218856268000
H            0.35995581564581       -2.33349710273166        0.00040409344616
N           -3.62634379609020        1.30109660808577       -0.00119696929022
H           -3.90333737778546        2.26714224555743       -0.00175602476691
H           -4.32224113870786        0.57629788741801       -0.00214823050752
