24
 energy: -46.168869149440 gnorm: 0.000401174479 xtb: 6.6.1 (8d0f1dd)
N           -3.83518110203590       -2.03317107047018        0.01310867479649
C           -3.05096836337710       -1.19121538144583        0.00859228046665
C           -2.18935930408188       -0.10081233648607        0.00181597696214
C           -2.66886225878605        1.31631930095296        0.00247252115772
N           -1.69535785047332        2.17735466401249       -0.00426041962208
C           -0.52931829954621        1.45932934993940       -0.00982309113593
N            0.65214056506156        1.96673231921678       -0.01724540695077
C            1.67863174699030        1.07223808425440       -0.02176588419331
C            3.00982645179661        1.32998930527520       -0.02968096829384
C            3.71950121217321        0.04085583133543       -0.03186963761314
C            2.80769212799942       -0.98118455027758       -0.02522085771113
C            1.51094995165332       -0.40156929337984       -0.01870877916925
C            0.24716445898812       -0.94404393676189       -0.01078813014016
C            0.00914480076220       -2.33234247512660       -0.00734953653648
N           -0.17564556250995       -3.46505997458917       -0.00508383139751
C           -0.82859912146231       -0.00653779792606       -0.00607844238467
H            3.01199818995650       -2.03418343871160       -0.02487855893549
N            5.06419498905704       -0.03414082982808       -0.03921561795191
H            5.62094039751567        0.80083296855100       -0.04432217119513
H            5.52048819920761       -0.92858392101243       -0.04108050392712
H            3.48586654474234        2.29157803389523       -0.03374481457380
N           -3.96318723772121        1.63266712573205        0.00940197532121
H           -4.22582597211773        2.60310694516260        0.00954845101191
H           -4.66681035699231        0.91431699288786        0.01441155681551
