26
 energy: -56.007876421894 gnorm: 0.000632680119 xtb: 6.6.1 (8d0f1dd)
N           -4.66760014021739       -1.96409214443959       -0.00110016403928
C           -3.82206970421898       -1.18772298837862        0.00142732810168
C           -2.83346544986720       -0.19752835787494        0.00039505107368
C           -3.12655373784170        1.21924494399998        0.00075176115284
C           -1.95350403709230        1.91373088772329        0.00014688688406
C           -1.79845645306721        3.30545111416229       -0.00083845703749
N           -1.68514918024724        4.44710478969244        0.00284400246283
C           -0.85379882772387        0.94185167398287       -0.00026027779451
C           -1.45396596525392       -0.37067478287242       -0.00038876953910
C           -0.65577878175000       -1.55513917131824       -0.00111375550668
C           -1.24701060372901       -2.83547609261143       -0.00126910857385
N           -1.72866229407671       -3.87516375842689       -0.00133984838052
C            0.71078921895475       -1.38963886116279       -0.00168287868322
N            1.67715508015264       -2.35647547945232       -0.00242326829083
C            2.82946469187855       -1.74480178366223       -0.00238505171450
C            2.67417014338576       -0.26761044064127       -0.00151676728532
C            3.74038786713989        0.62409477006061       -0.00028074457553
N            4.67774702760521        1.29005530450888       -0.00301929736400
C            1.30966788072714       -0.06228784816061       -0.00139561045908
C            0.50275664882792        1.12112638442339       -0.00066618917274
C            1.12657031954149        2.38945655184958        0.00044803201418
N            1.66769779184743        3.39891146593724       -0.00163574796952
N            4.01385897442381       -2.35897656321829       -0.00293713801838
H            4.87066088859522       -1.83347468472110       -0.00279300673409
H            4.03502162632883       -3.36423562670969       -0.00338561455039
H           -4.11858216592337        1.63070747410984        0.00121676869975
