26
 energy: -51.219727566157 gnorm: 0.000919563297 xtb: 6.6.1 (8d0f1dd)
N           -4.35113362640912       -2.20382724982220       -0.01244112066230
C           -3.63672130572835       -1.30513400980471       -0.00671837148121
C           -2.77858419981238       -0.20040740524333       -0.00400537208276
C           -3.15487890627363        1.12522224911533       -0.00822189963348
C           -1.97953123453718        1.93200731144851       -0.00311748618764
C           -1.96033831501975        3.32960346064752       -0.00729425140580
N           -1.93787953600626        4.47803547659797       -0.00910763496234
C           -0.85223675105416        1.09162650878690        0.00451438465989
C           -1.32837989588028       -0.25697953036500        0.00377094591742
C           -0.44877033801668       -1.32718153317005        0.00830999045226
C           -0.87005085332354       -2.67451568254070        0.00460613491375
N           -1.16110662241602       -3.78325641614166        0.00217908847004
C            0.93503103429555       -1.02810667997162        0.01381323055933
C            2.04856244938721       -1.86861925656347        0.01727755204782
C            3.22539829485967       -1.07228199170139        0.01847284210767
C            2.84499156452130        0.27635099435256        0.01735515907158
C            3.70563214842058        1.36680869150736        0.00703629937366
N            4.43650287532969        2.25616018851492       -0.01124618590547
C            1.39437120694646        0.33556268936782        0.01481713609304
C            0.52978443186329        1.39285204872275        0.01075021704077
H            0.86970662804015        2.41801794929884        0.01178927349920
N            4.49019958520424       -1.54996170710933        0.06934943642637
H            4.65565450221030       -2.52661761119049       -0.09671450391590
H            5.25747979944587       -0.91328971828890       -0.06059843942802
H            2.02849133429738       -2.94368623594896        0.01886043709319
H           -4.16065395144433        1.50156278750157       -0.01432262946107
