25
 energy: -51.485647086150 gnorm: 0.000563773981 xtb: 6.6.1 (8d0f1dd)
N           -3.69283244203696       -3.53681143594739        0.00124864899246
C           -3.33568756110638       -2.44532508907574       -0.00066967113262
C           -2.86217388636185       -1.13044573292836        0.00014829084980
C           -3.59790926115851        0.02652940054991        0.00017089716451
C           -2.70326677895083        1.14843756807362       -0.00008141908769
C           -3.10896912621367        2.48554219194574       -0.00168111598595
N           -3.47101297396132        3.57517955897885        0.00175125903395
C           -1.38532104867755        0.66678147683520        0.00017860732348
C           -1.44492077374047       -0.77109415840120        0.00020839928763
C           -0.29996381222544       -1.52034117389290        0.00006663690539
C            0.89897410464044       -0.77745807102677        0.00000710678649
C            2.24136787747650       -1.14950262990710       -0.00007554195673
C            2.76160794795312       -2.44339393515349       -0.00027628793557
N            3.21745164204751       -3.49867009328541        0.00053672597628
C            3.06045772378729        0.05288881512787       -0.00009332183009
C            2.21929376778614        1.15757436757988       -0.00008704194127
C            2.64042534898074        2.48623211274388       -0.00005182006562
N            3.04715386626079        3.56135208130979       -0.00038917069382
C            0.84911670530531        0.67964138536218       -0.00005979935807
N           -0.24238933734448        1.38076914213062       -0.00005749760442
N            4.40432465644157        0.03990047319244       -0.00014294191469
H            4.91175552580405        0.90757288495203       -0.00012014020224
H            4.90986814158156       -0.82849754801817       -0.00006177204413
H           -0.30004428739190       -2.60152105973010        0.00003475070064
H           -4.66943656929575        0.10364727258465       -0.00014492636773
