25
 energy: -46.704770621021 gnorm: 0.000884708895 xtb: 6.6.1 (8d0f1dd)
N           -2.45558899516834       -3.92697838097207       -0.01611086958403
C           -2.35522216226711       -2.78262105634651       -0.00888713715416
C           -2.23041621318990       -1.39034238174876       -0.00438090851900
C           -3.32503936618314       -0.47024703801093       -0.01076604042231
C           -2.82139039480929        0.80839893959779       -0.00490615780401
C           -3.54062962882563        2.00618918189886       -0.00968296972873
N           -4.10518295454965        3.00672612578680       -0.01260765079836
C           -1.36848384583982        0.72624423943086        0.00524752496546
C           -1.03039322202936       -0.66653265197657        0.00552713654393
C            0.32099641314755       -1.09442478806432        0.01377006201917
C            1.27443058689944       -0.12030447436628        0.01931218847035
C            2.72692732821486       -0.19539713872761        0.02194470746881
C            3.48638820552823       -1.35870660569076        0.00931713023746
N            4.14126712449312       -2.30552258734103       -0.01294327556258
C            3.22505807683732        1.10818644591592        0.02155220930391
C            2.12183591074385        2.01076823121508        0.02025861224149
C            0.93618263974787        1.28270141639719        0.01727963837231
C           -0.40797679991420        1.70433140580590        0.01104299405513
H           -0.66259191460285        2.75448331444496        0.00999135358596
H            2.20958624616315        3.08258896567773        0.02119458327669
N            4.53014576642046        1.47629956747316        0.08189430451930
H            4.77698804751621        2.42549900158114       -0.13766445471784
H            5.23049054136610        0.77037937463619       -0.07102918132246
H            0.56586836081658       -2.14658019888307        0.01503216062650
H           -4.36188533561544       -0.75096353513368       -0.01908273727290
