26
 energy: -50.407789154344 gnorm: 0.000886818819 xtb: 6.6.1 (8d0f1dd)
N            2.88325493048808        3.71176415948859       -0.00209098241134
C            2.38631177281539        2.67498804715794        0.00027255251456
C            1.86952993147798        1.38060178565840        0.00047858254060
C            2.71943384101613        0.18476107843788       -0.00466621529547
C            1.90904244268859       -0.93778616892337       -0.00259525549031
C            2.36572553288828       -2.25598026393404       -0.00638461028201
N            2.80133913326510       -3.32016020792084       -0.00843669005891
C            0.53792455554677       -0.49549242450108        0.00389724891890
C            0.55119731265678        0.97435817413048        0.00552815984164
N           -0.54860059797588        1.76050465006483        0.01118868556030
C           -1.68726636001016        1.13910350897594        0.01535810217114
C           -3.00091839073530        1.69435148226488        0.02161046041855
C           -3.89166833275003        0.65945540070608        0.02427760177591
C           -3.15558474057410       -0.62299418439597        0.01969679301702
C           -1.83552621278918       -0.34244375291495        0.01431357587829
C           -0.65529264984947       -1.16508614422855        0.00830604461619
C           -0.78258720520233       -2.56841797544990        0.00742015806191
N           -0.94600001687554       -3.70400154587514        0.00693605019800
H           -3.62415173276557       -1.59093287763642        0.02065954880521
N           -5.23754388697327        0.69968607371631        0.03017931200685
H           -5.77461955717415       -0.14830704426981        0.03119210054372
H           -5.71546214750553        1.58266705195000        0.03295693382725
H           -3.21711005115793        2.74290264391957        0.02370277929366
N            4.05967850437685        0.23908544393002       -0.01033825130930
H            4.59526629953277       -0.61200525328883       -0.01369775765549
H            4.53231236818571        1.12639307933799       -0.01130806058689
