27
 energy: -54.945113108975 gnorm: 0.000515505083 xtb: 6.6.1 (8d0f1dd)
N            2.50859070849328        3.64509324966898        0.00111521425524
C            2.28541906452855        2.51799178013748        0.00018743877359
C            2.10323312461393        1.13314163852248        0.00040790107276
C            3.13013909456495        0.20474192566851        0.00052398107432
C            2.53918203392281       -1.14001364363511        0.00015475030311
C            3.29849721016838       -2.30847245239520       -0.00063642308907
N            3.96360207268116       -3.24637580005374        0.00118232294318
C            1.16466876182142       -1.01482393541865        0.00012906865966
C            0.85408953751769        0.41620109538955        0.00019566261047
C           -0.44344824474634        0.85517028523392        0.00001035504998
C           -0.80309207321719        2.21807993756289        0.00042480441880
N           -1.13035514255351        3.31704334855587       -0.00044053120546
C           -1.47046517897612       -0.14861170669317       -0.00026358812867
C           -2.83791264424863       -0.08185172108705       -0.00061198284985
C           -3.72300342739987        0.99030396262926       -0.00127028798292
N           -4.53413860853374        1.80536446437839        0.00007281886153
C           -3.28511977833664       -1.50972796610972       -0.00072042094609
N           -2.28488377213964       -2.33841491341077       -0.00056533056518
C           -1.13888846082840       -1.57857482474462       -0.00033329345753
C            0.15205559388293       -2.00618728069756       -0.00017642400306
H            0.40579196673596       -3.05383778702890       -0.00027664731955
N           -4.57309984438751       -1.85896918858678       -0.00102559156323
H           -5.29533985949680       -1.15965680653932       -0.00109426442611
H           -4.81288494779337       -2.83515589539466       -0.00114510270124
N            4.45136435974616        0.42844976104897        0.00068105539970
H            5.10110647116807       -0.33900634687193        0.00071115801825
H            4.79852182761273        1.37268017777061        0.00080571119733
