22
 energy: -42.727955111549 gnorm: 0.000607203435 xtb: 6.6.1 (8d0f1dd)
N           -4.11189118877499       -1.62938994832836       -0.00177686522054
C           -3.33369330622230       -0.78400609905273       -0.00022443376036
C           -2.44260227196009        0.28822397184521        0.00032910897105
C           -2.84256318663361        1.70413843734773        0.00062126748466
N           -1.84191656648394        2.50763624353556        0.00031784703616
C           -0.69403048421274        1.71573409159867       -0.00022043874486
C           -1.06618124472463        0.30422284927602       -0.00025614288949
C           -0.06853471138850       -0.72620378158092       -0.00093386708924
C           -0.43995271698815       -2.08549665529029       -0.00108357930732
N           -0.75749761809794       -3.18724473204591       -0.00148269936330
C            1.23904345565873       -0.31693721236530       -0.00130940436349
N            2.36753786001797       -1.09268229283473       -0.00231902355932
C            3.37971905905140       -0.26464534205245       -0.00299302897790
C            2.95747687536800        1.14596948501931       -0.00223110882170
C            1.59703665674226        1.11141950518608       -0.00126037391544
C            0.59416735224983        2.12885887825933       -0.00066905701802
H            0.86223939639737        3.17379113098399       -0.00074774743501
H            3.61566994605569        1.99340915178310       -0.00234263552611
N            4.65714980606443       -0.66385225953789       -0.00248034956514
H            4.84883589728157       -1.65047949649313       -0.00667565300111
H            5.41136106165775       -0.00219872163946       -0.01074933869077
H           -3.85939093525814        2.05313632648618        0.00087333965727
