21
 energy: -43.784303934449 gnorm: 0.000721371864 xtb: 6.6.1 (8d0f1dd)
N            3.62166881498701        2.38979658321366        0.00121288097548
C            3.10819824796350        1.36207630462805        0.00009883378130
C            2.53204366420671        0.09366242510306        0.00033896662686
C            3.26694427148759       -1.17110274528159        0.00045563158353
N            2.48524972614707       -2.19420860665528        0.00042146729880
C            1.18203701942143       -1.71730495783365        0.00024065331948
C            1.19111907886337       -0.27402809489093        0.00016478527393
C           -0.02875810811984        0.47712487633171       -0.00000543993670
C           -0.00443807426949        1.88938025770466        0.00062251437562
N            0.02584175429193        3.03469384201941       -0.00261648814194
C           -1.18816698489211       -0.25398306603383        0.00029109480926
C           -2.60246470401795        0.09029253680989       -0.00005400540505
C           -3.15297739653102        1.37091007844470       -0.00158963997009
N           -3.61849924185693        2.42098380065822        0.00200205508319
C           -3.26631098276024       -1.12388776289252        0.00039430545029
N           -2.41894128056775       -2.18058908669174        0.00050147160689
C           -1.18246960552581       -1.70583025011628        0.00047072923254
C            0.02515382688770       -2.44430456084442        0.00040053802801
H            0.01606938307431       -3.52179058338866        0.00066404185419
H           -4.32781535953503       -1.28664830274854        0.00019114121573
H            4.33702029864569       -1.26345186193586        0.00046197803867
