23
 energy: -40.821158223010 gnorm: 0.000840798624 xtb: 6.6.1 (8d0f1dd)
N            4.40008670844848        0.21865911234613        0.10098224002909
C            3.29256548323230       -0.09241659430093        0.05326539969178
C            1.93174514774380       -0.44192423905617        0.00819783583007
C            1.66749376530881       -1.80978974035968       -0.13673831481995
N            0.57462278363430       -2.52827830350144       -0.06133248169077
C           -0.66605971701390       -2.06034732323218        0.07070049135006
C           -1.13539186503815       -0.77788127423609        0.00405791318715
C           -2.50088872188339       -0.35480365070100        0.03838469143824
N           -2.61572632780019        0.97044414329048       -0.02644545315517
C           -1.36839632197487        1.48076162853825       -0.08629041568208
N           -1.19111252458887        2.85480849495697       -0.14326413177441
H           -0.59334114476729        3.16304876550687       -0.90002283748750
H           -2.09053700271537        3.31924203694800       -0.17612264771922
C           -0.37786104354963        0.48865249507646       -0.05260119625088
C            1.00061101141356        0.64570573308473        0.07879063938927
N            1.50602364747070        1.88706062486296        0.22696401847399
H            2.49061537134766        1.99677379382643        0.41215956933367
H            0.87629952569527        2.63677392912315        0.46344563073694
N           -3.59667007079789       -1.15178314120685        0.03502040597681
H           -3.50188509841399       -2.10439503376470        0.33979437733217
H           -4.47524169655972       -0.69365295301486        0.20781078207447
H           -1.39133092842159       -2.85974554325278        0.20552115471179
H            2.55292973473242       -2.42506001413127       -0.28858539496751
