16
 energy: -30.756933663082 gnorm: 0.000420668380 xtb: 6.6.1 (8d0f1dd)
N            3.67648228873861        1.22813570610779        0.00252126453279
C            2.74331234434164        0.55982916603323        0.00131035721168
C            1.58941700037883       -0.23023198514462        0.00044187140424
C            1.51707039923609       -1.63980613428787       -0.00200822062680
N            0.27684412577705       -2.10567876105788       -0.00331832057193
C           -0.54828493010349       -1.05632653759668       -0.00125960753781
N           -1.84338437099282       -1.20629335952320       -0.00036005450475
C           -2.73942647780898       -0.23924423402149        0.00178312666685
N           -2.66057543830541        1.07630980230318       -0.00050511812113
C           -1.59063239477727        1.84214721049988       -0.00216714663823
C           -0.23373999039368        1.50926903508454        0.00005541332976
C            0.26187149976827        0.22209667072829        0.00092813503660
H            0.48216088807473        2.32357714929261       -0.00023860643193
H           -1.83298530956434        2.90162979617506       -0.00518537590893
H           -3.76333188849867       -0.60588015180665        0.00484563062635
H            2.35316897902946       -2.31730573468617       -0.00290146386674
