17
 energy: -35.264108362336 gnorm: 0.000445881698 xtb: 6.6.1 (8d0f1dd)
N            4.63965024731887        0.89633241662096        0.00039263378594
C            3.53807494361131        0.58333557647421        0.00128659330520
C            2.17058395851958        0.20057599747775        0.00030117759117
C            1.24336682533348        1.26798916726931        0.00093621577607
N           -0.06298451890424        1.24680885485919        0.00073213509512
C           -0.80495231047195        0.16202888629575       -0.00011176666812
C           -2.20386583786702        0.11799870330667        0.00000514732751
C           -3.09612528462980        1.19763799592874        0.00164806140178
N           -3.83945452355850        2.07075644076777       -0.00044668386480
C           -2.54676068274318       -1.25357836666186       -0.00096727768460
N           -1.50138847032731       -2.06786260823867       -0.00148544104584
C           -0.40129570210338       -1.31385073036429       -0.00094486566481
N            0.78976697551756       -1.84534152222268       -0.00124301966771
C            1.92451744269302       -1.18136421346981       -0.00070793138687
H            2.79806720021112       -1.82719353040816       -0.00105309699414
H           -3.54567754274121       -1.65437400964700       -0.00104112137019
H            1.66134537634165        2.27037401661217        0.00172165396425
