23
 energy: -36.020109061281 gnorm: 0.000673407845 xtb: 6.6.1 (8d0f1dd)
N            3.45305671798767        1.18648706857519       -0.10951281368474
C            2.16949081943933        0.72059309153612       -0.04125043183553
N            1.28783268538103        1.72467989744734       -0.02574759645551
C           -0.02255562809362        1.60504419747194       -0.01022141188138
C           -0.85125767955121        0.50286030034874       -0.01510115216745
C           -2.27138134738947        0.54739426025456       -0.00836660683642
N           -3.05187035160244        1.68728709734399        0.07602156031520
H           -4.00507452325312        1.56024446407979       -0.22881700606644
H           -2.62926180673527        2.52931672307261       -0.28274386933833
C           -2.74972242425250       -0.75596097146106       -0.01671531082065
C           -1.66907177706122       -1.64098499158944       -0.02818185951532
C           -0.48002257471271       -0.91904372189010       -0.03006543569277
C            0.82989874200192       -1.42723941487674       -0.02865258443700
N            0.98779152001108       -2.78288299044301       -0.07533380993240
H            0.19114161773070       -3.36433225124601        0.10860515707823
H            1.89492357812352       -3.17340016315929        0.10859885391221
C            2.00012201897547       -0.66495821899938       -0.02571479699638
H            2.92360450272919       -1.23533968308025       -0.02794119773634
H           -1.77531783716935       -2.71209550242212       -0.04377582593085
H           -3.78779261023858       -1.03888265198893       -0.01478385574686
H           -0.50916724168712        2.57986608565665        0.01500324262791
H            3.57089911176528        2.17549874300028        0.02436990007711
H            4.22669024310139        0.57993852046920        0.09360892736368
