21
 energy: -32.579392499874 gnorm: 0.000495890875 xtb: 6.6.1 (8d0f1dd)
N           -2.28969460712554       -2.21652631327199        0.08729027899944
C           -1.36563081350319       -1.19792361736712        0.02091135161670
N           -1.92603467031590       -0.00053394632422        0.00874187910399
C           -1.36576142543082        1.19689006345770       -0.00582993767254
N           -2.29016363002159        2.21543610392254       -0.06824729705054
H           -3.23925857445538        1.94887219244313        0.13371217828322
H           -2.00808453272974        3.13622954342227        0.21943702074781
C           -0.00979557998154        1.56886412381725       -0.03247523226675
C            1.09294542022031        0.74654633093793       -0.02070323937436
C            2.43252484817615        1.13962833275721       -0.03871776544735
C            3.23029818078397       -0.00037617836881       -0.00230997706978
C            2.43275804351570       -1.14042950620865        0.03751742922143
C            1.09308965764126       -0.74742952108471        0.02524540843044
C           -0.00954047709825       -1.56981479935374        0.04174363756564
H            0.18456002527233       -2.63660440463017        0.07506124387663
H            2.78124106470685       -2.15609332290735        0.07101260518546
H            4.30729443273547       -0.00034322341702       -0.00461830433460
H            2.78079900253496        2.15531346419007       -0.07370599592147
H            0.18409499206076        2.63566558405063       -0.06662497770271
H           -3.23966295867227       -1.95002069358610       -0.11059874968115
H           -2.00879463521356       -3.13730242697889       -0.20160081830951
