19
 energy: -29.148711213578 gnorm: 0.000593139426 xtb: 6.6.1 (8d0f1dd)
N           -3.54129866269998       -0.06327915799094       -0.05886981259068
C           -2.19174831631782        0.02724087058109       -0.00693326206655
N           -1.43040955924495       -1.07987395479019       -0.00557777299589
C           -0.15496917010761       -0.67072344115459       -0.00615775003363
C           -0.09809798693187        0.80968355902042       -0.00610768810668
C           -1.42452779773882        1.20964773567598       -0.00648287893996
H           -1.80700019990160        2.21219091955153       -0.00744576756161
C            1.03743620625731        1.61842401442752       -0.00408989963755
C            2.35721965468409        1.22733988766691        0.00152053699029
C            2.89609232939647       -0.06078461891596        0.00656672227191
C            2.25634497816826       -1.28623739877901        0.00558222880258
C            0.89549680237803       -1.56719694800391       -0.00122253103879
H            0.60186253599397       -2.60903108285748       -0.00261525026283
H            2.90818905128728       -2.15198824606641        0.00973946714067
H            3.97923524200307       -0.10194418226163        0.01159910855456
H            3.08570704920665        2.02997030582880        0.00248773461449
H            0.84543129770632        2.68595034989772       -0.00678757321704
H           -4.09147917439251        0.74196789182318        0.18242676068223
H           -3.93874818314628       -0.97233884095301        0.10370294719451
