20
 energy: -32.864717556587 gnorm: 0.000595019336 xtb: 6.6.1 (8d0f1dd)
N           -2.94508911534382       -0.32668770322420       -0.05982866257365
C           -1.61213558686320       -0.53871838594563       -0.01564782749702
C           -1.17420329335709       -1.87395380892599        0.01597697297586
C            0.11459153423299       -2.36580461914859        0.05825393707319
N            1.30663900343353       -1.80552010348171        0.03423992464558
C            1.58431153781547       -0.50422031462505       -0.00635591933492
N            2.90892744985238       -0.25869426707257       -0.06873711199178
H            3.53226527402693       -1.04653894029330       -0.07402375055141
H            3.26682008143045        0.67753435779202       -0.09685325210429
C            0.69612454482220        0.59365914390163        0.02058102455245
C            1.02598663316446        1.95193650220433        0.04499926630904
N           -0.05545160303706        2.73562135059353        0.05316082225059
C           -1.11774101760718        1.93295491542783        0.02800700235894
C           -0.75886222141059        0.57812220837052        0.01049638386076
H           -2.10423589095469        2.36353830909348        0.03137792617574
H            2.00254155338315        2.40336557106355        0.06624723240649
H            0.19264841757113       -3.45062314182467        0.10754729124933
H           -1.96070506091124       -2.61981381806383        0.01713297198057
H           -3.58403270448153       -1.10120360969097       -0.06725636184079
H           -3.30803510286624        0.60834426444961       -0.07242963044464
