20
 energy: -37.664500100188 gnorm: 0.000462092630 xtb: 6.6.1 (8d0f1dd)
N            3.97170107759794        0.08801475024913       -0.03858892752031
C            2.82224848657623        0.03931557177688       -0.02297818542208
C            1.41357776937755       -0.01889888155083       -0.00573439836326
C            0.76342509630478        1.25706218929080        0.00428005763670
N           -0.52089958886162        1.56385435962753       -0.00834696871118
C           -1.53561346180963        0.74097311922115       -0.00953761839848
N           -2.80019851738080        1.15254527489186       -0.02625467920047
C           -3.52011409879300        0.02331304592283       -0.01037189587866
N           -2.86102005976253       -1.12571861007691        0.01423927176724
C           -1.56089642429008       -0.76485146916744        0.01321051232877
C           -0.51322478033017       -1.63734187839865        0.01645821566764
C            0.86101295003130       -1.31558265684532        0.00178831647214
N            1.71538678230380       -2.36596856875243       -0.00315917814884
H            2.71053510679205       -2.22275942056177       -0.01896230942153
H            1.35863723896047       -3.30406966392337       -0.00343715345000
H           -0.76577598745748       -2.69089837972132        0.02432352984508
H           -4.59541207018568        0.05253987159093       -0.01665342034631
N            1.55238682667095        2.35320720545757        0.02366881452190
H            2.55533039479292        2.29610315334955        0.02691009056255
H            1.08926788016299        3.24519318341983        0.02205591115911
