20
 energy: -33.658816883375 gnorm: 0.000952076958 xtb: 6.6.1 (8d0f1dd)
N           -2.11603892283542       -2.59467354929473        0.01425253550230
C           -1.48446309784398       -1.63673043931987       -0.00235172799613
C           -0.77572130744837       -0.40890955155946       -0.01105486794814
C            0.61005688477889       -0.52847791934498       -0.00585668902470
N            1.20254262607325       -1.72446347884133       -0.00162874336280
C            2.52395067704596       -1.49854599180620        0.00159574946254
C            2.84882430916692       -0.14868126034072        0.00021687314324
C            1.63542902442701        0.54766972016379       -0.00384734185087
C            1.43151888928765        1.91289574614052        0.00107065898791
C            0.21650526250287        2.58446072915069        0.00149710066407
C           -1.07191895790734        2.08607711869869       -0.00716519629937
C           -1.55796249090935        0.77045590567060       -0.01732517594173
N           -2.91189851451513        0.61909021306187       -0.06706666664756
H           -3.50913123552387        1.41733516158059        0.05292590997210
H           -3.31640291686629       -0.29684034378278        0.02567813294751
H           -1.85404331847683        2.83798357020789       -0.00868634547529
H            0.28491676891188        3.66557866933151        0.00943581847773
H            2.32396835924769        2.52773806418787        0.00726443376744
H            3.83254773457056        0.27815782730205        0.00235899805522
H            3.20339993731386       -2.33270639550599        0.00456171726651
