24
 energy: -40.547791823191 gnorm: 0.000463597045 xtb: 6.6.1 (8d0f1dd)
N            3.40974755040520        1.94634811511345        0.12531353739628
C            2.54049266038583        1.19110823903735        0.06809800117732
C            1.47689913609941        0.27348453322649        0.00995292933187
C            1.85886186866914       -1.08711818239053       -0.05572534364739
N            3.19086006582252       -1.33572451239338       -0.13549030505955
H            3.85673419177777       -0.58286297546874       -0.10660368867496
H            3.52852000347456       -2.28047304752666       -0.11375456453881
C            1.03361166534226       -2.22845153282073       -0.02732408658992
C           -0.33451838151567       -2.31190812548900        0.03694221595562
C           -1.25857371585456       -1.27729030102663        0.03239241026624
C           -2.65211194021879       -1.41171363774902        0.07186313466241
N           -3.27707909569822       -0.23686221030593        0.00533675656845
C           -2.32936433360095        0.70859910481714       -0.06865929388747
N           -2.68338706041492        2.06005988080792       -0.14080265155562
H           -2.36615630824078        2.50456986486859       -0.99626693894819
H           -3.69264315263580        2.13738418711677       -0.07122410279932
C           -1.02919592681741        0.16211927034817       -0.03524700205988
C            0.17904902621937        0.86046963755555        0.03461265716267
N            0.11209595870137        2.20918562146654        0.10940554364256
H           -0.78239879387549        2.61654546181657        0.33975313411185
H            0.95027324080206        2.74048321151397        0.27893901120693
H           -3.21352809571912       -2.32609628640900        0.13114401486907
H           -0.75556189130394       -3.30966004841375        0.08121668540105
H            1.57387501459602       -3.16756262869506       -0.04709834799119
