26
 energy: -49.601659670453 gnorm: 0.000528681463 xtb: 6.6.1 (8d0f1dd)
N           -4.01344850103724       -2.57924936844416       -0.00641309669567
C           -3.28434528746923       -1.68822791550100       -0.00498770620619
C           -2.42271838082715       -0.59871500465831       -0.00484703113884
C           -2.80909093858534        0.77250298491101       -0.00622816282934
N           -1.74730458776629        1.59656290049213       -0.00537638411309
C           -0.65503643421620        0.83028577902627       -0.00356078886354
C           -1.01747426104934       -0.60243964597814       -0.00318147106948
C           -0.19295760006432       -1.70446458690226       -0.00144215121097
C            1.20364734039558       -1.75854934843479        0.00023940777033
N            1.74951849735519       -3.00208152883466        0.00230903962633
H            1.15348281454085       -3.80937343380188        0.00050076013701
H            2.74572537252848       -3.13298712517549        0.00198904519295
C            2.10673069788741       -0.66160611893655        0.00046643429560
C            3.47015343768751       -1.02831433969566        0.00198188673791
N            4.57968247306732       -1.33330296761705        0.00256175272255
C            1.87577059679157        0.73216301039438       -0.00043549677950
N            2.96579518846244        1.53701034685092        0.00048588906307
H            3.89286085166076        1.14851048894135        0.00164019338425
H            2.85062514724680        2.53600792118199       -0.00027504663893
C            0.61774115003995        1.38828475356604       -0.00222168974890
C            0.64456423245990        2.80338074921632       -0.00244839650436
N            0.71778314277610        3.94895418683240       -0.00385187364216
H           -0.69779561438574       -2.66452418775409       -0.00137198603313
N           -4.05671091155818        1.24638216283324       -0.00806458556546
H           -4.84297523068650        0.62107091233100       -0.00875424966213
H           -4.19509653605437        2.24156183745702       -0.00891087142834
