25
 energy: -45.878217982333 gnorm: 0.000318699401 xtb: 6.6.1 (8d0f1dd)
N           -4.31246437029684       -1.58982617298657       -0.00337615269189
C           -3.28866427184010       -1.06501637230081       -0.00382984720257
C           -2.06491248847918       -0.39768415188779       -0.00383081127781
C           -1.91534717775964        1.00635709580566       -0.00476914374087
C           -0.52387626445720        1.30250274817825       -0.00425228018903
C           -0.07412970543371        2.62493748877109       -0.00530398185257
N            0.15584897572968        3.75173615518719       -0.00626220082265
C            0.20059366381121        0.09903926280084       -0.00284063904568
C           -0.78560862506767       -0.99369863067421       -0.00267110694056
C           -0.56205223273360       -2.35586779900680       -0.00157494966597
C            0.65808548836697       -3.02074080875876       -0.00027537671513
C            1.93614903687705       -2.50779466638685        0.00014262717332
C            2.39454183182757       -1.17879524510201       -0.00058035170196
N            3.74250880817992       -1.01187985423400       -0.00007221909651
H            4.14671946809334       -0.09161559289112       -0.00034310955089
H            4.35088908836326       -1.80958046489908        0.00152666857692
C            1.59381806515208       -0.00803491934839       -0.00182092157621
C            2.32756615534649        1.20340696803059       -0.00163393748857
N            3.00754350978661        2.12883232971394       -0.00206298043232
H            2.73267094202946       -3.24334033545542        0.00134879730540
H            0.59552162599831       -4.10150449629059        0.00057030102844
H           -1.45226914247952       -2.97333420824056       -0.00169821222202
N           -2.90142741236545        1.91227984618457       -0.00597747287623
H           -3.86215674705261        1.61704105380864       -0.00663746680492
H           -2.68030523829647        2.89344414318219       -0.00673330498973
