22
 energy: -41.919147192465 gnorm: 0.000543128431 xtb: 6.6.1 (8d0f1dd)
N           -4.53512261311352       -0.56092161557010        0.00543988435604
C           -3.40637897822647       -0.35002158005810        0.00260087967532
C           -2.01749120000486       -0.07355451969024        0.00161284794338
C           -1.21604907466460       -1.21083574188031        0.00061507006054
C            0.16728489020767       -1.34093237095214       -0.00099344137808
C            0.68446886655498       -2.65981242181557       -0.00221741929094
N            1.07456884371408       -3.73768208860611       -0.00185042481613
C            1.10380430061421       -0.30118288707473       -0.00204840894885
N            2.41557172529785       -0.47071999115089       -0.00370668043186
C            2.91991727355895        0.78935077769883       -0.00429493978103
N            2.01588428820150        1.78114889996406       -0.00312068920046
C            0.83102074377195        1.15947094922086       -0.00164705134772
C           -0.37166304396154        1.82982908196401       -0.00020875439322
C           -1.66723967911105        1.30703100007099        0.00122021130932
N           -2.68603804067431        2.20125716845567        0.00201434164007
H           -2.49063269895091        3.18575215511278        0.00266898902441
H           -3.64289890019694        1.89265268117421        0.00385414668227
H           -0.28785473074796        2.90976890080638       -0.00031713275579
N            4.23249335353465        1.00886675673567       -0.00559244860039
H            4.85692364342603        0.22282244981920       -0.00771076496490
H            4.57674852699869        1.95150450488580       -0.00735933508478
H           -1.76352357882838       -2.14848538001028        0.00112474150280
