26
 energy: -43.998146070892 gnorm: 0.000546170669 xtb: 6.6.1 (8d0f1dd)
N           -4.79689671303210       -0.54888186583731        0.20211856441190
C           -3.64862131909072       -0.50570398658726        0.12587936070927
C           -2.26086375351592       -0.40437500349865        0.05149804145323
C           -1.34447989509596       -1.46523713756802       -0.03081482742423
C           -0.05520586516205       -0.94381849620374       -0.04448913888485
C           -0.17331218937504        0.50826589800781       -0.00590690478029
C           -1.54457798132946        0.80850839743875        0.06636206708459
N           -2.13278371065341        2.07733712254414        0.11522729206281
H           -3.13779920936234        2.01045932377999        0.23022959109844
H           -1.73229188708025        2.67805418176497        0.82590110224035
C            0.86690716271956        1.45152836093954       -0.14990017156707
N            2.17244863282298        1.27702676121176       -0.02331218959317
C            2.84316357239983        0.14399615643474        0.12130540346493
N            4.17986551865849        0.35638938947332        0.30443569779029
H            4.46089760471990        1.30073543298627        0.50215039566590
H            4.77072050566417       -0.39247980266846        0.61625614434666
C            2.42848230637008       -1.18772093933061       -0.00237743417011
C            1.14180466750114       -1.69941114273748       -0.10777432512085
N            1.02477300601664       -3.05261754015305       -0.19579189141688
H            0.13283406555478       -3.45518390536425       -0.41462674898525
H            1.84393147051974       -3.60583571548673       -0.37327920920982
H            3.22835623765191       -1.91972101326093        0.00418067410561
N            0.52601482554449        2.74685700768325       -0.38174013062058
H            1.28480301306669        3.36506288670366       -0.61519889466235
H           -0.39139256227045        2.93791487538274       -0.75177497598831
H           -1.63792895144260       -2.49956676755443       -0.04422980851018
