22
 energy: -37.106506813277 gnorm: 0.000382467615 xtb: 6.6.1 (8d0f1dd)
N           -3.36132902840593       -2.15037537090990       -0.00884146141495
C           -2.48670652766905       -1.40138863438415       -0.00643761233755
C           -1.42636403033552       -0.47919022579362       -0.00520529374649
C           -0.14206917759070       -1.02294144434662       -0.00948426796045
C            1.05991578006328       -0.35552008061837       -0.01143071640288
C            1.24956875689445        1.10944453433826       -0.00008221958516
C            2.63656656631125        1.33258190597443        0.00234901929092
C            3.29506343851786        0.11672743892471       -0.00902779761756
C            2.35300501675802       -0.92586576722525       -0.01997621209714
N            2.65524627512311       -2.25962169995682        0.03018222026743
H            3.59497259613554       -2.51769126917019       -0.22120620637070
H            1.94174443747684       -2.91114601880079       -0.25105282965031
H            4.36135146946236       -0.02417837712717       -0.01009856495127
H            3.10287063470473        2.30060607531537        0.00937686969296
C            0.27504374736022        2.08103209507438        0.00993984273442
N           -1.04529900613296        2.00007074499453        0.00558873910112
C           -1.79408778533891        0.90890279484814       -0.00266180359086
N           -3.11586861863623        1.18460260991979       -0.01154466829289
H           -3.80683556937196        0.45439556286328       -0.00888660741011
H           -3.39060552562927        2.15112184318531       -0.00376201947982
H            0.62016322594073        3.11289641694544        0.02124398171291
H           -0.10857918513793       -2.10844930965096       -0.00738335779213
