24
 energy: -41.356972247997 gnorm: 0.000721687019 xtb: 6.6.1 (8d0f1dd)
N            5.36672127602816        0.57087511347753        0.00381856852347
C            4.24337072473711        0.32993908496477        0.00083556448842
C            2.87300793189031        0.04269647707734        0.00205410811820
C            2.29924822870522       -1.23122583140060        0.00348611108164
C            0.90815667448499       -1.09023014489128        0.00257223274607
C            0.02415390579548       -2.16617769108945        0.00200885799042
C           -1.34496615339738       -2.16045001862750       -0.00059257170543
C           -2.23192077243146       -1.06749503213870       -0.00216484666564
N           -3.55047213452368       -1.38433295761108       -0.00579614126012
H           -4.25679141483905       -0.66894450830319       -0.00509761621414
H           -3.83722288477690       -2.34614481474218       -0.00447238858649
C           -1.90805796949893        0.30962914400322       -0.00017737354660
C           -3.02183369322976        1.17447851525072        0.00121094569683
N           -3.93479209984431        1.87629015627600        0.00122300803248
C           -0.64851327326797        0.96227117508334        0.00134589708526
N           -0.67449671485600        2.31269762088713        0.00091206706566
H            0.18257373613690        2.83294638066006        0.00961349953601
H           -1.54650421050912        2.81342054189845        0.00668312633026
C            0.61569078159423        0.33863548982549        0.00127883947673
C            1.84560776567072        1.00065104137192        0.00107573006816
H            2.02884788342195        2.06046508642710       -0.00074741197993
H           -1.83166870991912       -3.12841132953483       -0.00153110004131
H            0.49587989449611       -3.14193740085675        0.00319691204560
H            2.83675886383249       -2.16113707880756        0.00452494191444
