22
 energy: -37.106028305673 gnorm: 0.000660467479 xtb: 6.6.1 (8d0f1dd)
N           -4.67778818032622       -0.55065813564683       -0.04342601373855
C           -3.52941200586457       -0.49343886732737       -0.01484327769408
C           -2.13741807849782       -0.37925708169187        0.00087065429867
C           -1.21136892384742       -1.42925114706879        0.00542342198113
C            0.07507715015135       -0.89154101976133       -0.00160353562923
C           -0.06484011926867        0.57951466580624       -0.01000374400799
C           -1.44259077141140        0.85695726551698       -0.00999135588631
N           -2.04524333498424        2.08499077630347        0.05192523231586
H           -3.02846254449449        2.11022989694471       -0.16668964929797
H           -1.51385260259295        2.88100167453060       -0.25759307680627
C            0.97198378406484        1.49732110531873       -0.01683636824072
C            2.32703221733189        1.24396390252001       -0.01623199446276
C            2.98531107892011       -0.00492940958858       -0.00602124640051
N            4.33879917052268        0.01664323644895       -0.01356189897104
H            4.85687573749982        0.87459641641706        0.03113515628507
H            4.81949178449946       -0.86495644241523        0.02304964041372
N            2.51174245804020       -1.25447871818627       -0.00017989998968
C            1.25122315976061       -1.62398830428690        0.00140604855925
H            1.13783938174646       -2.70662280249497        0.00803626035737
H            2.98394094094177        2.10479033026350       -0.02177962320571
H            0.69016729222835        2.54506736555187       -0.01722645687843
H           -1.45963025091976       -2.47422553815384        0.01136049839819
