26
 energy: -44.795534150036 gnorm: 0.000808965747 xtb: 6.6.1 (8d0f1dd)
N            4.20825545495795        1.36188160756775       -0.02710882537752
C            3.24406723711508        0.73055600334900       -0.02110144452943
C            2.09484282196504       -0.04964793866704       -0.01529095333113
C            2.06662949874666       -1.46519137523071       -0.00800444377962
C            0.72543539251143       -1.88631141794930       -0.00696680435001
C           -0.10275448167668       -0.77446355130254       -0.01516427827204
C            0.76188782342092        0.42285716621894       -0.02042043562907
C            0.40536754069949        1.74582143194773       -0.02380018971028
C           -0.88166736368868        2.31344147221893       -0.02092109229044
N           -0.92837380125083        3.68234248554114       -0.07089313094579
H           -1.79712812911694        4.15152275711111        0.11295838620003
H           -0.08585381625797        4.19911789996771        0.10753562189658
C           -2.10010300600663        1.64275030433359       -0.01678196415889
C           -2.41123543506416        0.28133965353556       -0.02904083617884
N           -3.74281222096525       -0.03052484693873       -0.09173399448336
H           -4.42454448075688        0.68743225551018        0.07305290734029
H           -4.02951799252290       -0.98471895323744        0.04356670049213
C           -1.50522619988759       -0.80367270170833       -0.01771640027219
C           -2.07968436018148       -2.09156250149431        0.00412057615559
N           -2.56940712437074       -3.13195500999891        0.03505440124380
H           -2.96995515320819        2.29247430659012       -0.01857022632060
H            1.22934915210598        2.45161980494685       -0.02815776901964
H            0.40119464471830       -2.91033920389002       -0.00196210636827
N            3.15207112925769       -2.26206812101402        0.02377076157446
H            4.06841152732353       -1.85866871058359       -0.06255702903835
H            3.04799356393302       -3.25648951202331       -0.06598927534747
