23
 energy: -41.627731804687 gnorm: 0.000857889176 xtb: 6.6.1 (8d0f1dd)
N            4.07182937553574       -0.01409472308111       -0.00209699413325
C            3.01091877387451        0.42876735044865       -0.00046644580478
C            1.76248012772491        1.05624458181886        0.00094881608461
C            1.60487237309542        2.46859044192425        0.00363132710978
C            0.26997542189263        2.78783874601462        0.00362625012753
C           -0.48507882558379        1.59461050230354        0.00079481100814
C           -1.84955618125459        1.52024488135072       -0.00149051416639
C           -2.65445794698961        0.35344503141578       -0.00564982373678
N           -2.30093933666779       -0.91564078230904       -0.00584416589418
C           -1.10665233444577       -1.48613258097169       -0.00217473186332
N           -1.17700712365335       -2.83897084929683       -0.00265113735026
H           -2.08655672389807       -3.26291478784650        0.00275912688747
H           -0.34965902629292       -3.40872288990120        0.00552793956022
C            0.19104205218845       -0.89111725027525       -0.00173800232820
C            1.26011336162912       -1.81468525160278       -0.00226193041869
N            2.05055073074904       -2.64882262408555       -0.00250944675650
C            0.49162236014881        0.47044436074456       -0.00051887211793
N           -3.99924644581478        0.53736854886850       -0.00150573886229
H           -4.59052478202785       -0.27342257696204       -0.02726090347002
H           -4.40428796498969        1.45330499140307       -0.03527429638075
H           -2.38545228111540        2.46247580841949        0.00003335395658
H           -0.14986403160104        3.77603936359386        0.00526213451581
H            2.42719691600112        3.16192767603202        0.00571295943320
