24
 energy: -46.154343868039 gnorm: 0.000683791368 xtb: 6.6.1 (8d0f1dd)
N           -2.50853291476196       -3.09856712025488        0.00062925613775
C           -1.55418261600839       -2.46299960461131       -0.00056061551873
C           -0.33051130773721       -1.75024954414419        0.00012362294928
C            0.81399266149993       -2.56184199114757        0.00200988539621
N            2.09205294778135       -2.28480459594125        0.00274459949227
C            2.69225478125881       -1.09717754385939        0.00179213536747
N            4.04061266372798       -1.18912997753742        0.00285227273111
H            4.45068556343202       -2.10640717301690        0.00442956480461
H            4.62711608665110       -0.37512252354554        0.00262005445452
C            2.13019873766310        0.19992034759759       -0.00017693769090
C            0.80189470649173        0.54282092975501       -0.00159015219794
C            0.30979873758507        1.87053231019695       -0.00369510211400
C            1.08630381466566        3.02828436324760       -0.00499786080818
N            1.71876296585020        3.98919620302656       -0.00434118693459
C           -1.09713493339730        1.83301813321273       -0.00478201513652
N           -1.92791340090475        2.88023489598068       -0.00682404206076
H           -2.92303881268991        2.73111640673171       -0.00750103016266
H           -1.56568779431673        3.81823494778336       -0.00760602175964
C           -1.50805203734637        0.46172941388063       -0.00367515635666
C           -2.86021378371964        0.10766247116475       -0.00558735460242
N           -3.99837370235178       -0.05227640091388       -0.00349751751076
C           -0.37341335391633       -0.34961782102982       -0.00147593609374
H            2.83525025699049        1.02373532730208       -0.00059808350390
H            0.62231891055295       -3.63242301747761        0.00312853091823
