18
 energy: -31.740039815387 gnorm: 0.000758609184 xtb: 6.6.1 (8d0f1dd)
N           -3.79588722985362        0.50818258035362        2.99144214355495
C           -3.06182135274045        0.67997926546361        1.89156182488587
C           -3.43645404357245        1.53313612167016        0.77189076343316
C           -2.40604059620553        1.39276286298708       -0.09308725650804
C           -1.48037507380656        1.49943320636797       -1.19040143473283
C           -0.83607515366455        1.87894030569146       -2.32356659327656
N            0.38380362802164        1.25221047639339       -2.39010897326087
C            0.57212020456879        0.45824380046293       -1.33154571809129
N            1.67985400169661       -0.33447220419200       -1.21436126491485
C           -0.55284220812704        0.53879258575649       -0.49014274689572
C           -1.44827581082186        0.44892567645984        0.57294039994084
N           -1.87199687414616        0.04687503046093        1.76451805506531
H           -3.45367680927151       -0.10520012943208        3.71048648558834
H           -4.68334083919793        0.96495147252589        3.09933320279977
H           -4.34195158241679        2.10586676360167        0.72428002841436
H           -1.11657283214821        2.55022042719213       -3.11331448596784
H            1.94598433254587       -0.60444606683801       -0.28155809762451
H            2.43536823913977       -0.08835217492510       -1.83393633241009
