20
 energy: -35.983294955873 gnorm: 0.000726861776 xtb: 6.6.1 (8d0f1dd)
N            1.35002677989050        0.00611199105531        0.33423536724702
C            0.20695354228616        0.02639849484327        0.20540132828020
C           -1.18370355177931        0.06768910146456        0.11875235621415
C           -2.04962189757962        0.32465470319574        1.26592509341775
N           -1.56530158697106        0.53686246648224        2.49335342384893
C           -3.41782206309417        0.31638181885311        0.90136398344192
C           -3.44278809184324        0.05622758696403       -0.44825316152229
C           -3.93199583369697       -0.17401568291423       -1.74940999577291
C           -4.73479401058413       -0.34320353674775       -2.87712863641389
N           -6.09917174982779       -0.37957998642563       -2.98752195043170
N           -3.94693161017009       -0.57154658906993       -3.94866653110475
C           -2.63399753402124       -0.57249427490682       -3.60266228347705
C           -2.51664769502639       -0.33033471992808       -2.26033524003383
C           -2.03545750419794       -0.10048242641362       -0.94449528546000
H           -0.57138086421016        0.51664879506798        2.65070870116194
H           -2.18165914238691        0.70390828179602        3.26913779486121
H           -4.23238863983971        0.48186647843914        1.58082433289133
H           -6.62277465772981        0.16283304135012       -2.31985470015603
H           -6.43351612331143       -0.33770039204135       -3.93738212174637
H           -1.89136776590666       -0.74339515106398       -4.35882247524565
