18
 energy: -32.560141447530 gnorm: 0.000807072660 xtb: 6.6.1 (8d0f1dd)
N            1.38319758538592        0.21323584066975        0.30620161337144
C            0.24345641974893        0.15349487285860        0.16658532485509
C           -1.14429051737207        0.11032928702024        0.05462087137496
C           -2.05684380266882        0.58462288753773        1.09476320076775
N           -1.66713391452347        1.10593469389884        2.25416835350111
N           -3.37193547920353        0.45449571203969        0.79346199215939
C           -3.36343539732495       -0.08891234611663       -0.40942931762787
C           -3.93911355132407       -0.61496288063969       -1.58442111259482
C           -4.84820287637052       -1.03761663789504       -2.52929424751860
C           -4.07675933210646       -1.52491362384609       -3.59916467267233
C           -2.68269381537775       -1.42566875837511       -3.36640820294025
C           -2.56111725287962       -0.86457888361288       -2.12397388399346
C           -1.99205574185463       -0.33178812346348       -0.93267836866333
H           -0.68920756673243        1.19882515284657        2.47060792620994
H           -2.36395005539422        1.40673582600763        2.91373100395834
H           -5.92081167383886       -1.01576850731162       -2.49224658426100
H           -4.49858798873000       -1.93079707351472       -4.50319258939013
H           -1.91571503943343       -1.73774743810378       -4.04991130653617
