19
 energy: -37.056669036850 gnorm: 0.000556485883 xtb: 6.6.1 (8d0f1dd)
N            1.38429813315651       -0.20606026732696        0.06405266065894
C            0.23911396552046       -0.12035085481298        0.02066398250451
C           -1.15772631292360       -0.04986122076332       -0.00427628137248
C           -1.91413298946116        0.68439235649290       -0.98507994588146
C           -3.21665032266406        0.47933035788707       -0.66694655003392
C           -4.63888248634204        0.50964990147435       -0.70818337155964
C           -5.96470585489428        0.71837691239041       -1.02698636691961
C           -6.54980121618414        1.46226347285900       -2.05699599833016
N           -7.02474397998221        2.07189885717852       -2.90530318413977
C           -6.67534684603400       -0.03302544743989       -0.02051204147967
N           -5.91989664806485       -0.67606919485605        0.86955935568149
C           -4.67516372886698       -0.37836441101031        0.49793592347920
C           -3.28297832957077       -0.42041734026878        0.56066328203547
C           -1.98044607385105       -0.72938043316716        0.94522381263094
N           -1.54324821934047       -1.44658211959133        2.01009733327116
H           -1.47470705174631        1.25563711051698       -1.78092022759957
H           -7.74814892372183       -0.10125463692477        0.04466334848886
H           -0.57076253512098       -1.70079221351972        2.05247934019305
H           -2.19998057990805       -2.02753082911788        2.50044492837288
