20
 energy: -36.803497141726 gnorm: 0.000346119510 xtb: 6.6.1 (8d0f1dd)
N            1.31143662061941        0.29731751935109        0.01284104831206
C            0.16737646012077        0.19538636778834       -0.01639351314129
C           -1.22760296223108        0.12005185911739       -0.03444291858208
C           -2.09228277575204        1.20441527879096        0.35730881821264
N           -1.66517782159933        2.39552871340336        0.77884142379501
C           -3.47914670318650        0.83257139265801        0.23350774105407
C           -4.54128014063672        1.68540363893282        0.54417360157845
N           -5.38648805231399        2.41705325804713        0.80953121247400
C           -3.47598691830229       -0.46979952151330       -0.23052210869575
C           -3.93835087422998       -1.73269607632042       -0.67704600695924
C           -4.75997725186668       -2.77049791274784       -1.04124260252580
C           -3.89376309869721       -3.81962588794489       -1.42058706282448
C           -2.52834384816999       -3.47673553732758       -1.30676525345747
C           -2.51414495140569       -2.18369422674925       -0.84569640457887
C           -2.06896504784787       -0.91495627541927       -0.39826972739988
H           -0.67920509041550        2.58825712021520        0.84125903784973
H           -2.32605849032703        3.10944458123386        1.03718795165110
H           -5.83266135193152       -2.81479545610598       -1.05023245288281
H           -4.23862094868377       -4.78144795240880       -1.76074988936188
H           -1.70281675314307       -4.12174088300079       -1.54164289451747
