21
 energy: -35.713255677214 gnorm: 0.000874420689 xtb: 6.6.1 (8d0f1dd)
N            1.41119371851939        0.04805328616507        0.06386881893719
C            0.26157140661848        0.01236870391872        0.01524755323443
C           -1.13334973946035       -0.01436150553185        0.00184961466095
C           -1.92446518669560       -0.92297760899749       -0.77669895323518
C           -3.21846545089036       -0.62432028488675       -0.47171846155558
C           -4.64459260005795       -0.65322114414556       -0.45850193888175
C           -5.93068780143601       -0.99653610558095       -0.73597077428403
C           -6.74059752791530       -0.11593101689576        0.06105655845253
N           -8.08320411867930       -0.14472839291233        0.06912667109646
C           -5.95093891155130        0.78016185932024        0.83946206506617
C           -4.65233052288110        0.47368486246571        0.53703950059733
C           -3.23964250274428        0.49956390591197        0.51949091823580
C           -1.93203284374115        0.86237827650230        0.79845225381936
N           -1.44900572612366        1.88893968354773        1.57959822966576
H           -1.51848145373235       -1.66295583387130       -1.44081580228620
H           -6.32055318549340       -1.74835301146222       -1.39608089497384
H           -8.60422602859425        0.51469573258941        0.61899498821092
H           -8.58220102606449       -0.77929171592559       -0.52822340561014
H           -6.34723353543894        1.52396065376794        1.50481321474189
H           -0.47278734487177        1.82485004436736        1.82568652899803
H           -2.05148961876603        2.19793961165333        2.32499331510985
