15
 energy: -29.370208340727 gnorm: 0.000438296993 xtb: 6.6.1 (8d0f1dd)
N            1.35321068573581       -0.00109598484034        0.00022509205368
C            0.20622046893562       -0.00055128956036       -0.00024025082028
C           -1.19958687142216        0.00012712078442       -0.00002749313941
C           -1.98360757129772        1.18994372260165        0.00000411970532
C           -3.28242554689257        0.75661559459109        0.00001859288888
C           -4.69858650561293        0.74915942604210        0.00002071342761
N           -5.94962246648319        1.17046886164750        0.00001283318094
C           -6.63305042179796        0.00276381320786        0.00000146330817
N           -5.95075621437494       -1.16560364758870        0.00000857886466
C           -4.69931167727672       -0.74550864301907        0.00001557261492
C           -3.28315882789911       -0.75433916435638        0.00002265334428
C           -1.98476168643488       -1.18892759548573        0.00000556822171
H           -1.58741708022135        2.18766601458446       -0.00002935988429
H           -7.70881581309693        0.00328604849623       -0.00001054799281
H           -1.58954047186094       -2.18703427710474       -0.00002753577339
