22
 energy: -40.221788598340 gnorm: 0.000883719407 xtb: 6.6.1 (8d0f1dd)
N            1.36068381756945        0.12579243824274        0.27573050307411
C            0.21142207560495        0.09913933611514        0.27103267305875
C           -1.18400021633463        0.06189519318185        0.23806437395975
C           -2.05937570371723        0.07841371451665        1.36805427370607
C           -3.41470966350126        0.02716843780300        1.01449303445346
C           -3.44268434437233       -0.02433636669545       -0.36745981816816
C           -3.91492391335101       -0.09681455302315       -1.68954610551436
C           -4.75312557789127       -0.18547175640123       -2.78149763084894
N           -6.11426055327652       -0.31394695604485       -2.83987820357224
C           -3.87815755925932       -0.21680387721673       -3.92188930592174
C           -4.33749777275747       -0.30657424872314       -5.23645856130867
N           -4.72032556325263       -0.37985537331436       -6.31888446396165
C           -2.48449748740158       -0.14910983987596       -3.57172674149992
N           -1.45504920392249       -0.08564066568291       -4.46641795194649
C           -2.46932572366800       -0.07220574417080       -2.19486949202103
C           -2.02121052213412        0.00000026444604       -0.86777906685500
H           -1.69882879544425        0.12291569022275        2.38254316288540
H           -4.23480475925360        0.02740028016432        1.70725226300742
H           -6.63632252202129       -0.01814804371904       -2.03252342456477
H           -6.55002084181196       -0.14351412073887       -3.73196789520913
H           -1.64362630636206       -0.37741966488317       -5.41148567394060
H           -0.52991886344172       -0.27195414420273       -4.11807594881192
