20
 energy: -35.178004487703 gnorm: 0.000594152972 xtb: 6.6.1 (8d0f1dd)
N           -0.54945412819159        3.09920691080728       -6.56609618493126
C           -0.61327506354836        2.71251813967832       -5.28941992025349
C           -1.74219848306108        2.94049987492247       -4.41163151777343
C           -1.35244869432956        2.38198880825462       -3.23566768707050
C           -1.30519888819139        1.81418877376709       -1.92888002511441
C           -1.66530088803655        1.26125816815498       -0.72494561591095
N           -2.84182451819534        1.33538916892837       -0.01179762388018
N           -0.64839593466074        0.46505253501573       -0.26610681211114
C            0.38235110653441        0.44971068164160       -1.12744955642355
N            1.54120806668288       -0.21969293640147       -0.83489720879847
C            0.08219482320370        1.26510200312087       -2.22258293377883
C            0.01746793723347        1.81874920016145       -3.49911527511768
N            0.42576653042688        2.02813953406418       -4.74304051361288
H           -1.31070040177947        3.59013908117454       -6.99831611898198
H            0.27437822430564        2.87738532198918       -7.09688814523428
H           -2.64324391333148        3.44550645944855       -4.70068740283070
H           -3.36358494351967        2.18994499819100       -0.12817822229412
H           -2.74129719460559        1.03736515962646        0.94674173364649
H            1.44902132003363       -0.89972210113812       -0.09679807899301
H            2.09456504303016       -0.50998978140721       -1.62493289053542
