23
 energy: -39.147558236697 gnorm: 0.000690009071 xtb: 6.6.1 (8d0f1dd)
N            1.38002591066820       -0.07276986705187       -0.05404495331457
C            0.22785795668154       -0.08838116363915       -0.07105487533752
C           -1.16390263743973       -0.07471200302858       -0.06314139578415
C           -1.96305118625602       -0.83754007157472        0.85521095745294
N           -1.46176190443297       -1.76258995617450        1.74879285884391
C           -3.26467808663081       -0.49829209399071        0.56354717673412
C           -4.67816458712868       -0.44721007575101        0.60195647587431
C           -5.97328271210037       -0.69887679667984        0.95539276068148
C           -6.76786833113431        0.10441988230615        0.07769426926243
N           -8.11131280487006        0.14736770205022        0.11146745896576
C           -5.96805379560621        0.86839368083917       -0.82985255004941
C           -4.67487768845168        0.54625452361575       -0.53068971990263
C           -3.26134056412701        0.49815762880289       -0.57108250537293
C           -1.95777959698164        0.73955777073043       -0.94100412343471
N           -1.45085461761340        1.50435772985311       -1.97231988066571
H           -0.48419378017102       -1.65590382606502        1.97432521841837
H           -2.05107021241113       -1.96451763718030        2.54078144043035
H           -6.37018819763940       -1.34961544864348        1.71198290839548
H           -8.61884333807736        0.67694826839967       -0.57457955614138
H           -8.62263520161921       -0.46288351031107        0.72371483803479
H           -6.36055508548915        1.53556477717893       -1.57433208801590
H           -2.03685871028288        2.26534894477307       -2.27693129712672
H           -0.47281082888656        1.73882154154086       -1.89257341794826
