25
 energy: -47.477064449430 gnorm: 0.000401274160 xtb: 6.6.1 (8d0f1dd)
N           -4.96746522984758       -0.29679356214101        0.54281500215444
C           -3.82735972550605       -0.23076162924434        0.40628315016218
C           -2.44330970707283       -0.09372692083404        0.21157918354848
C           -1.60442574694778       -1.12752447259290        0.58558111221800
C           -0.23093255011490       -1.26092443739585        0.36524537411602
C            0.32459240326937       -2.53280838904599        0.63160110651642
N            0.75754498352942       -3.57294920640631        0.84951630456080
C            0.69794024533004       -0.26655983887996       -0.02762900348485
N            1.88439177777435       -0.64535673484879       -0.44030003993225
C            3.03091400529341       -0.00010497360819       -0.39547609746199
N            3.40171876900168        0.91394676170474        0.51638016903362
C            2.55712451611603        1.76093175988010        1.05125065164663
C            1.22135774504717        2.00853768701370        0.74435625439268
C            0.32976398354858        1.15073383822426        0.09251126962115
N           -0.81778695988688        1.63172904786804       -0.34754975824149
C           -1.99776200090544        1.09445156745817       -0.47810635085626
N           -2.88745432441688        1.75241405427612       -1.24376205201293
H           -3.85488792440394        1.47688948530040       -1.24840553563673
H           -2.61463474273020        2.62404986073388       -1.66361561594210
H            0.79368075037222        2.93605089109274        1.10078976073946
H            3.02677831804493        2.43002009504844        1.76628743903749
N            3.99111072409491       -0.39970825544238       -1.24563491915262
H            4.92971862638654       -0.07844080730350       -1.08454572937857
H            3.82980473401103       -1.21362325687946       -1.81295807764831
H           -2.08828401560049       -1.99312398957423        1.02576901831023
