29
 energy: -49.553822912685 gnorm: 0.000982629028 xtb: 6.6.1 (8d0f1dd)
N           -4.91956864439869       -0.44625337330615       -0.61210454746793
C           -3.79954964142171       -0.27644568689328       -0.38626858070208
C           -2.44456614536899       -0.09022481812086       -0.11088379368842
C           -1.79980009405837       -1.08508232908153        0.70302685352524
N           -0.53497105433717       -1.37027893424779        0.73422654711676
C            0.51719420721213       -0.70407557695967        0.23625315050141
C            0.55955594584359        0.76201304268503        0.23211716431826
N            1.63327271803791        1.43266847186741        0.65030130659120
C            2.90109719314906        1.13283441452152        0.56444449805249
C            3.49665974034289        0.12055529105505       -0.22183696865938
C            2.86961199950224       -1.04523760202517       -0.61757451982114
C            1.56624253403629       -1.45456862580363       -0.24372828250126
H            1.34553544686775       -2.50630428349458       -0.38065571572904
N            3.58350814462177       -1.93701492491930       -1.37154217202778
H            4.57578342350098       -1.80719715396473       -1.46489465276804
H            3.23686648993915       -2.87580401129801       -1.46084902841241
H            4.54661979405464        0.23667116058032       -0.45632555090611
N            3.73577434483929        2.01824605346718        1.18908083693912
H            4.69155297759022        1.75952058912707        1.35492185765410
H            3.30456035832019        2.65987715396923        1.83200710254071
C           -0.52478928227991        1.51318592497697       -0.18586522386292
C           -1.82944614350254        1.10792084282496       -0.51348769536055
N           -2.58595024865131        1.99415169144954       -1.21694273117631
H           -3.57105697559551        1.82319531610793       -1.32810839391396
H           -2.24201323421616        2.92545705652970       -1.36647543647053
H           -0.30837082695178        2.56371213816110       -0.33840695290894
N           -2.60428172440679       -1.85817070763509        1.48138211572167
H           -2.18764726904637       -2.66349854134028        1.91560508325932
H           -3.59508722622231       -1.86325230673329        1.30808276935391
