27
 energy: -42.087876010020 gnorm: 0.000418800991 xtb: 6.6.1 (8d0f1dd)
N           -5.04989084770075       -0.30316360370977        0.20026419805365
C           -3.90349700149826       -0.29076121438881        0.08029430870918
C           -2.50960207336401       -0.24932354861673       -0.05626512431195
C           -1.85811464418013        0.94737551163234        0.24840160850045
N           -2.60924718692545        1.98930862758889        0.68851119868287
H           -3.60391803438699        1.88332151370869        0.78824902906934
H           -2.19002750505422        2.88279003889090        0.86847481638971
C           -0.47984630424887        1.21404073407645        0.05715978256370
C            0.61795340615650        0.40207406083480       -0.11298211438482
C            1.84526178878102        1.09828473558665       -0.39921253422464
C            3.15027100123059        0.79262809782274       -0.14076076998879
N            4.11096210756834        1.73245980687456       -0.43144877479801
H            5.06884694038250        1.42965541325215       -0.47312935824586
H            3.86035222160130        2.48402089585739       -1.05175363617545
C            3.63520389523304       -0.38106171010353        0.52520921019891
C            2.94621380523052       -1.53113517061378        0.70588772118881
C            1.63860870080429       -1.84909722855867        0.27429936004744
C            0.59232898681036       -1.04743699390979       -0.11126848948588
C           -0.57682473261694       -1.75073579164741       -0.59540063758250
C           -1.88440645808699       -1.41923764986181       -0.57154894875146
H           -2.58050413260298       -2.15991437124997       -0.94952288013067
H           -0.34748916739400       -2.73049979174397       -0.99849519181353
H            1.41669656163200       -2.91009739111462        0.29666529018265
H            3.47943118101085       -2.34837998443735        1.17684570598309
H            4.66411566527479       -0.33729036029448        0.85734262690153
H            1.69095256834138        2.07736548847022       -0.84309563163224
H           -0.25074340549836        2.27415445685575        0.10996819185503
