27
 energy: -42.086691741062 gnorm: 0.000758686299 xtb: 6.6.1 (8d0f1dd)
N           -1.98579538231942       -2.54661010890173        1.53845581627217
C           -1.71906878335148       -1.59240186993796        0.94863533759437
C           -1.42907710460766       -0.40351106219532        0.26254335721958
C           -2.47995153627004        0.46783843963998        0.04490816492557
C           -2.37127051645695        1.75231145432262       -0.57318822814700
C           -1.24459926216638        2.50133752913375       -0.66658704999768
C            0.06674799993382        2.18668906837262       -0.24768616109848
C            0.65114065138461        0.96511259412168       -0.02741857638737
C            2.00138395618910        0.96781638033915        0.46929300502765
C            3.02682028698649        0.09559203238482        0.25683925839280
C            2.98762255506266       -1.07040877986141       -0.58365459057666
C            1.88163376497391       -1.72711980042293       -0.99142994771561
C            0.52834207187798       -1.45188095062144       -0.65750488674990
C           -0.03991902030619       -0.30346388049772       -0.19336033105707
H           -0.14498525525357       -2.28721440181046       -0.81105084522493
H            2.03065349325461       -2.62444358729268       -1.57950217745874
H            3.95523608981259       -1.46726066321711       -0.86300853598938
N            4.26968917686090        0.39834622412467        0.76791355957523
H            4.31307866499767        1.08664580787097        1.50069934905991
H            4.93901607126153       -0.34943388510044        0.83512393201601
H            2.24868652316659        1.84557240603196        1.05857242239337
H            0.72871464331039        3.04078823118254       -0.16596240027292
H           -1.36554607114290        3.50428475162609       -1.05932919739291
H           -3.30772314300064        2.19370801475903       -0.88903892847121
N           -3.74269004870020        0.08023980558623        0.38425071655506
H           -3.86720063381611       -0.76233002933593        0.91979678761435
H           -4.48229005188257        0.75883968229784        0.39007456999446
