29
 energy: -50.326703737300 gnorm: 0.000805287109 xtb: 6.6.1 (8d0f1dd)
N           -3.80942032190151       -2.42411372170167       -1.45278715387571
C           -3.09721325444853       -1.68030853056891       -0.93969583880909
C           -2.24938345389851       -0.76167203777533       -0.29934808905528
C           -0.88753126064545       -1.16440476844528       -0.08946389832269
C            0.17172215976344       -0.35159067944269        0.14174859528517
C            1.49118707385049       -0.94147519102685        0.41734189203274
C            2.63665868879148       -0.51594158984918       -0.21224475094404
C            3.80832665784545       -1.26903365741765       -0.00729942295964
N            4.75277770763467       -1.90039326651270        0.17269541905824
C            2.76605118776328        0.60148697571675       -1.11302811830279
C            2.01617624974499        1.71583876535181       -1.14640305800153
C            0.90190480295976        2.02892673190710       -0.28031502916005
N            0.70115116008235        3.37600004572255       -0.02683387869699
H            1.11961705212674        4.01486327157182       -0.68323103222089
H           -0.21525566704860        3.64691707495289        0.29085185681884
C            0.08036471912926        1.09985905457631        0.26721986890994
C           -0.98232516022038        1.44455673163958        1.22675924569237
N           -2.21807881805508        1.18407868006910        1.11950457128250
C           -2.80625675839294        0.42127914528873        0.16074404643058
N           -4.06415956584077        0.81354511496004       -0.19309954279728
H           -4.66065469885164        0.13584217696007       -0.63964816255298
H           -4.50516261552605        1.50537548474967        0.38864385678183
H           -0.68527880264344        1.94719606231850        2.14546795984367
H            2.30737629292125        2.50269774272669       -1.83080850874160
H            3.62384374405778        0.54674084117474       -1.77183440564325
N            1.51963863734244       -1.95603111582820        1.31509336664975
H            0.66054158056397       -2.36070053488052        1.64336661398700
H            2.38501969390309       -2.43822370077022        1.49532499317544
H           -0.70265002870573       -2.22580524926815       -0.20713445656633
