24
 energy: -43.737130416762 gnorm: 0.000551573299 xtb: 6.6.1 (8d0f1dd)
N           -3.32355730962091       -2.20750822317311       -1.07116589947680
C           -2.27736170646568       -1.86681518026733       -0.74390604654650
C           -0.98607176597975       -1.44193544790180       -0.37336576957839
C            0.06629333340333       -2.31391581475773       -0.51759477997013
N            1.30193883667249       -2.21862298528574       -0.04241254667139
C            1.95439760977639       -1.13984886625208        0.29802985029046
N            3.12339438457579       -1.32818227754902        0.93501679863214
H            3.75696629156395       -0.56216338799855        1.08882272709432
H            3.43259996754856       -2.27247866950046        1.09190106018854
C            1.59695441400272        0.22545938242043       -0.04896457704045
C            2.66710909089598        1.12815481433640       -0.17792666821334
N            3.57216945433711        1.83197541096259       -0.26901144562327
C            0.30501394536770        0.69783962064498       -0.18475935493377
C            0.03828584718205        1.97309902576620       -0.76279172294011
C           -1.04504530775268        2.79686822759508       -0.60127238719765
C           -2.07588067085797        2.69756752565015        0.35089254332953
C           -2.27760361205927        1.58944219399658        1.13883797307025
N           -1.85827275715008        0.37560775095094        0.83906885139635
C           -0.88359032254389       -0.09470263175374        0.15138125242591
H           -2.94231200104352        1.62853461321355        1.99296457814540
H           -2.71356327565871        3.55731651540494        0.49283310786676
H           -1.03745266195128        3.70294754722475       -1.19406860023816
H            0.80236571783950        2.30832867033279       -1.45500785561639
H           -0.13896994018183       -3.27916425185897       -0.97021017559381
