28
 energy: -51.423415444462 gnorm: 0.000555213392 xtb: 6.6.1 (8d0f1dd)
N           -3.82514511016633       -0.23234486109152       -1.36361716416570
C           -2.84120250383674        0.17989461383400       -0.93960862189252
C           -1.60988735396604        0.73985105567202       -0.52618522871061
C           -1.43550167038900        2.09031424938995       -0.94430324777093
C           -0.51221562516804        2.98769055589299       -0.51546666712846
C            0.46961380006249        2.66207369879461        0.48329645066024
N            1.00193822251471        1.48871014204356        0.63181936620048
C            0.70188779929770        0.28033382797185        0.17581667261339
C           -0.69401234606152       -0.11757069362337        0.08675212867371
C           -1.12220131887773       -1.37273432842628        0.62057712185194
C           -2.41060266752875       -1.40130421694063        1.19697279405436
N           -3.41587993034973       -1.43290239706097        1.75169721546833
C           -0.41689390615331       -2.56737304422209        0.64110374857256
C            0.83011514360048       -2.85656297856162        0.11757142105920
C            1.81470810674089       -1.96659626587501       -0.31661372540646
C            1.78215011979072       -0.55295490881634       -0.13960454597173
C            3.00863162545850        0.12487810672252       -0.29738946296022
N            4.02206456617040        0.64820357304220       -0.44381059170984
N            2.94100900568655       -2.48762778033196       -0.85603879853440
H            3.07351162442045       -3.48319067619009       -0.87683086131566
H            3.72551289198837       -1.89147446904455       -1.06064976913268
H            1.09662931817126       -3.90437302100733        0.06658271051911
H           -0.96255190370951       -3.40886009092041        1.05193563460796
N            0.91067873212845        3.64318027521476        1.29186794484555
H            0.62306923713803        4.59421102346258        1.15268334937674
H            1.62905885966266        3.43495231185498        1.96310130010418
H           -0.58094973238228        4.01649427291710       -0.83577163035720
H           -2.20325647514342        2.45052766110003       -1.61894537705138
