28
 energy: -50.630810641462 gnorm: 0.000724670115 xtb: 6.6.1 (8d0f1dd)
N           -1.98186660349253       -2.52205897367300        1.23902135205731
C           -1.71596523173580       -1.52606175927748        0.72692406617079
C           -1.47234199215161       -0.23275752854280        0.22478605530562
C           -2.61776447646849        0.65246486040791        0.28078478670591
N           -2.81891463512678        1.72855675055650       -0.42909640506298
C           -1.90242684422753        2.38152368729325       -1.14848645654248
C           -0.54518447428707        2.36563849390109       -1.06024150982924
C            0.29902108619898        1.44693211881519       -0.35074452176813
C            1.54421416550578        1.87624591512157        0.02461455857037
C            2.58591301579877        1.11924273253020        0.64013463025390
N            2.86618447276664       -0.14699999234587        0.45693272752840
C            2.12359358198885       -1.02618152866780       -0.22411336645662
N            2.82486711049950       -2.09086644490166       -0.67204129316732
H            2.34321411916255       -2.89496698950332       -1.03766268132284
H            3.78639201930937       -2.16917164238509       -0.39164263495907
C            0.72907211768143       -1.00410903978678       -0.40575686623680
C            0.16836551241051       -2.16858541722084       -0.95945780413183
N           -0.20620983620869       -3.11700070676417       -1.49441581937078
C           -0.16982022214118        0.08089675476698       -0.14590042648960
N            3.46823090655191        1.79571272907842        1.40608881563683
H            4.22392999038219        1.28853803622680        1.83073071201813
H            3.35124168785554        2.77387600242873        1.59501036451212
H            1.74418394106888        2.93516274246071       -0.08428659878265
H           -0.01264725093898        3.14000756691438       -1.59819271643557
H           -2.35320620329021        3.11699547222800       -1.80799582855062
N           -3.63705092558987        0.29265030351253        1.09365166095741
H           -4.49020080566044        0.82010167011990        1.02030525970644
H           -3.65916263386258       -0.62461010439401        1.50661452408258
