26
 energy: -48.758473042080 gnorm: 0.000627574766 xtb: 6.6.1 (8d0f1dd)
N           -4.70991052102235       -1.88044685403753       -0.86653628382310
C           -3.69462813686475       -1.44274851312487       -0.56552334362286
C           -2.43315343590052       -0.91551645906350       -0.19312108724644
C           -1.69968454755630       -1.68385359021491        0.78639683996888
C           -0.37754918274501       -1.65916378643131        1.00428361099059
C            0.61611281485347       -0.86664702879900        0.28654212500789
C            1.79923274598304       -1.44324258156544       -0.09841520935158
C            1.92656909432286       -2.84283805558774        0.08694400315665
N            2.04896200910286       -3.97326532289007        0.23259651798035
C            2.91282688421928       -0.82648610648786       -0.76658132587353
C            3.29070023326921        0.46879945135718       -0.67843594677329
C            2.65580236578227        1.45918993126918        0.12608171489771
C            1.35654627413367        1.47504386530670        0.50978459879160
C            0.91178093122104        2.47308051968781        1.41000470214217
N            0.55206407089061        3.24239866013686        2.18009316437620
C            0.30739817058438        0.53256277947565        0.08692565540166
C           -0.88403194628906        1.02241196760405       -0.37702954552627
C           -0.94892769349772        2.40893114697730       -0.67706103041256
N           -1.01354608745724        3.51275080187222       -0.97676233872811
C           -2.06808095401440        0.28788621037151       -0.70967785966511
H           -2.76675057591917        0.79740031863092       -1.36249179091787
H            3.27800746682258        2.28335213748244        0.45299295725410
H            4.21062064650854        0.76636738777914       -1.16159844730758
H            3.55018025934406       -1.51113745174430       -1.31176952333187
H            0.02933108382900       -2.31559041361356        1.76418694885858
H           -2.29862490340012       -2.37808217019136        1.36198253295369
