29
 energy: -45.529665055705 gnorm: 0.000530401937 xtb: 6.6.1 (8d0f1dd)
N           -0.14611327545099       -3.31719617897169       -1.37287407096778
C            0.21545555693726       -2.32646250607241       -0.90396575296422
C            0.68937563868643       -1.12316287813370       -0.36493936943414
C           -0.35470687482044       -0.14394767388869       -0.07761521679144
C           -1.55103478902903       -0.66696959966711        0.32895271053680
C           -2.83671020864847       -0.08069150070688        0.51386866652971
N           -3.72718660048136       -0.83415975626185        1.23696881916805
H           -4.70187773083928       -0.59068963966014        1.18122162859789
H           -3.52482779622476       -1.81160315525721        1.36299828013284
C           -3.25607862303893        1.12252176178304       -0.00148031318533
C           -2.47561201563521        2.02317768609320       -0.74861386658389
C           -1.12847537500162        2.08332424237694       -0.89381607007519
C           -0.08846374319287        1.26005799451739       -0.32617228302115
C            1.11863943299545        1.87312490765604       -0.12441509024155
C            2.35247066997625        1.37129129632971        0.37600711530569
N            3.26041114084209        2.33267337605741        0.74976199069155
H            4.06607215178225        2.03908913988782        1.27550061820851
H            2.91184216613380        3.25329815120743        0.95456090932006
C            2.75873423637203        0.06077388284623        0.39569303026063
C            2.05430192106580       -1.05646671406856       -0.10759496022817
N            2.79158742368374       -2.19921827203107       -0.25723679658956
H            3.79284588896438       -2.12841384135881       -0.29009169178568
H            2.36740499110253       -2.98350065729061       -0.72437538142732
H            3.77002333688958       -0.13608994976979        0.73073883725482
H            1.13124151320277        2.94236549589486       -0.30707209387399
H           -0.74991985582634        2.90669741819748       -1.48883978250357
H           -3.03849130427444        2.81021423745648       -1.23779081609073
H           -4.29875391207487        1.38103617838775        0.13239703034136
H           -1.53110267959692       -1.72716088744816        0.56019986541628
