25
 energy: -47.469930910457 gnorm: 0.000600985929 xtb: 6.6.1 (8d0f1dd)
N           -4.53240968137465       -0.26966984358950       -0.14555880488330
C           -3.38210891849590       -0.29284862389647       -0.09553042571998
C           -1.97562700772122       -0.32624296691980       -0.03927098180736
C           -1.36491236981836        0.90532521335714        0.30602410371269
N           -2.17141161807718        1.90286703221113        0.72784623273489
H           -1.79232295260209        2.82774089868588        0.84932246573892
H           -3.17093741435109        1.78456264140887        0.72388851970000
C            0.00355077866005        1.22711786694107        0.12215355835051
C            0.36292219537114        2.58854116404017        0.16289740488968
N            0.63659541028651        3.70272594555855        0.22654775719344
C            1.00630819768458        0.31125964678362       -0.20532845280795
N            2.03920453049100        0.60833716539942       -0.94618555872403
C            3.24633241494287        0.11520266449811       -1.01604044722071
N            3.92219696702200       -0.48935305955010       -0.05918051224870
C            3.25510564235371       -1.03421509597976        0.94963378694611
N            2.01972051722020       -1.43664494398964        0.96871619330049
C            0.96912908035081       -1.11062495082356        0.24140298940030
C           -0.06813121014844       -1.96711116403732       -0.03666950638082
C           -1.39436170020365       -1.59481189103347       -0.30599458259456
N           -2.22578817823618       -2.57517723586979       -0.72540513285472
H           -3.21617001987424       -2.41254089041393       -0.79650870959010
H           -1.88336253415196       -3.51490311896660       -0.81588151018369
H            0.13528440072805       -3.02762083564661        0.03136121109522
H            3.84273739222077       -1.29574033270164        1.82327354799778
H            3.79378795582377        0.35745839243543       -1.92018071774372
