26
 energy: -51.989833918651 gnorm: 0.000426688621 xtb: 6.6.1 (8d0f1dd)
N           -3.67857307049690       -0.24955681843377       -1.53073995910460
C           -2.72232047962996        0.17400621705144       -1.05943497607527
C           -1.51756110050572        0.74018161251826       -0.58079861084930
C           -1.30316985721583        2.08526658608612       -0.98636698374245
N           -0.48848569220081        2.96842704420981       -0.50610863932707
C            0.39813032171319        2.65878472007044        0.47706752033889
N            1.06199539891070        1.54223277322208        0.59372402527643
C            0.78295837008502        0.31720538412743        0.18364839668733
C            1.85411917880791       -0.53120686132346       -0.12381380485090
C            3.10955059815827        0.07282143932037       -0.32607356660758
N            4.15190491944190        0.51847276925207       -0.51350191218843
C            1.77847294534048       -1.94585047731499       -0.31068153365606
N            0.91947146982016       -2.76189422681318        0.27883262056695
C           -0.23298115663575       -2.47114953497622        0.82506073216371
C           -1.03624480175241       -1.34724203972701        0.63093024847429
C           -2.36330280051123       -1.43425182197428        1.10815527540663
N           -3.40711765192867       -1.50961914161204        1.57856773581942
C           -0.61510178576303       -0.10865448440879        0.07664511293905
H           -0.65754161680384       -3.28688271146466        1.40246490709919
N            2.73834879507541       -2.54905008105582       -1.03055197539214
H            3.51793868257139       -2.02519011906123       -1.39150527409139
H            2.74976211647446       -3.55441225380142       -1.06287238106994
N            0.69741264102322        3.66396055529717        1.30923176023303
H            0.31688731011716        4.57469002860297        1.12093100613562
H            1.43917966572198        3.54990514175883        1.97742181924987
H           -1.97992055241668        2.46784152304855       -1.74481364233574
