25
 energy: -43.452879677964 gnorm: 0.000626102794 xtb: 6.6.1 (8d0f1dd)
N           -4.64574691790884       -0.49417723628144       -0.42093793279604
C           -3.52511713295286       -0.29936123426294       -0.25201850658385
C           -2.15517852001857       -0.03262058361683       -0.05930775540249
C           -1.38018065526725       -1.12155029705678        0.39840859324568
C           -0.02102869948694       -1.25333312934820        0.42345996792652
C            0.53229262462871       -2.45909826064478        0.89988406860480
N            0.98406756233387       -3.42957522413161        1.31449022899150
C            0.93913928901879       -0.28945458255441       -0.09492722149823
N            1.92359925992446       -0.74350855503496       -0.77261753332021
C            3.09327346217664       -0.23061495168647       -1.13549523687445
C            3.79116123782240        0.70365683775290       -0.42181117463464
C            3.20984831218980        1.54014233207546        0.55983938487249
C            1.88620086889139        1.77502879371597        0.77996928161435
C            0.73584045022832        1.12909569034012        0.20757748267820
C           -0.44572881950252        1.79746191523871        0.07263845481940
C           -1.73604247850105        1.29379658310560       -0.24903914158748
N           -2.65200143483545        2.20357437439846       -0.64910612630131
H           -3.60439528677352        1.92412689390159       -0.81532448170329
H           -2.40766317718293        3.17415820539252       -0.73022942570256
H           -0.40282107081395        2.87420377600780        0.19553272772275
H            1.63888154718988        2.52982202669324        1.51772349628189
H            3.90274997079316        2.14910160659412        1.12746946992459
H            4.84394868883857        0.83235172851687       -0.62565765818521
H            3.54761057056250       -0.73776838661130       -1.97760591259111
H           -1.95227628765466       -1.98859451210426        0.71172405089806
