23
 energy: -39.205469987472 gnorm: 0.000336391427 xtb: 6.6.1 (8d0f1dd)
N           -4.72231618730120       -1.14724540985320        0.72968439066950
C           -3.69439484928484       -0.72238957733609        0.44940284344105
C           -2.42991872760406       -0.18920388382713        0.09667879118220
C           -2.48676394310235        1.00392358292744       -0.73525318504448
C           -1.54139334762006        1.95020947028846       -0.82974892618449
C           -0.29045952221547        1.97320008134369       -0.11243396794755
C            0.39619315594460        0.90508546765962        0.31637663889391
C            1.61320297341973        1.00419150463840        1.14809261334181
N            2.75183181228508        0.52865340812853        0.86065085777670
C            2.98548874784562       -0.33694709990280       -0.17112553254359
N            2.24138833206661       -1.35979785920741       -0.45656810911057
C            0.95515165057102       -1.48858080136467       -0.06813061823862
C            0.04375552833269       -0.50998116572627        0.20137563793257
C           -1.33267072342864       -0.85940964182264        0.51367960009255
H           -1.47869003298938       -1.76279678366138        1.09645627283344
H            0.60689792472107       -2.51484095201139       -0.11009664108444
N            4.18297488684001       -0.19694249373244       -0.79541801430352
H            4.87668117892917        0.37622706478002       -0.34682732587151
H            4.49854221391519       -0.98180508893683       -1.33965455532046
H            1.52079207833194        1.49605563259768        2.11362690052769
H            0.13098373391289        2.95439752361885        0.06900010764779
H           -1.74915290363874        2.82332603209853       -1.43468537045029
H           -3.42216205933086        1.14132965930109       -1.26259184593951
