25
 energy: -47.471923339323 gnorm: 0.000474527657 xtb: 6.6.1 (8d0f1dd)
N            2.48260208556127        3.17625180191439       -1.19180163696533
C            1.56516271165965        2.53745586173294       -0.92967495171690
C            0.44088054450536        1.74761331991243       -0.62212172872781
C           -0.83187614442053        2.31117155320157       -0.74263399235248
N           -1.96309502025651        1.91876743271817       -0.22249468735492
C           -2.28728891207148        0.75109266132962        0.32474318196398
N           -3.41076113874220        0.78029037208263        1.06954774860141
H           -3.83620240967091       -0.07732568991401        1.37914209240321
H           -3.93336314760288        1.63874132736697        1.10308278658093
C           -1.66520187671388       -0.50212181818874        0.08109205038848
C           -2.41197856389110       -1.66594580903152        0.32650214944834
N           -3.05153148568556       -2.58960046503985        0.57208539846909
C           -0.35069598096114       -0.63766375892429       -0.39934743164274
N            0.04623233670584       -1.68796000137611       -1.05409928686538
C            1.22296706488016       -2.23940981583977       -1.24911781676585
C            2.31697004346356       -2.13220393849706       -0.41650487306027
C            2.40749204164976       -1.08435087735569        0.52617371476348
N            1.78240515269457        0.07185306906613        0.38188624627747
C            0.66971727014232        0.42146598864234       -0.18368973266428
N            3.27508369765370       -1.16104932300307        1.56055875426165
H            3.45426826716999       -0.32964984788154        2.09703370031148
H            3.94537355145901       -1.90791729881894        1.59270634801692
H            3.11874430111827       -2.85104729020785       -0.48151011018932
H            1.24415324533737       -2.93435462092234       -2.08067746225511
H           -0.89618112248450        3.28094507983414       -1.22827834462551
