25
 energy: -41.871426616807 gnorm: 0.000812203485 xtb: 6.6.1 (8d0f1dd)
N           -3.70308362240793       -0.98416229115731        1.17567736365895
C           -2.75127540548400       -0.38066980398365        0.40152100877915
C           -1.52330752316590       -1.05357966849633        0.27876899673524
C           -0.31605094333201       -0.60076576447167       -0.22823967452855
N            0.63149074391253       -1.50410778116982       -0.48073731264987
C            1.93094515725249       -1.33899398005667       -0.44394557829333
N            2.65509509182020       -0.43563246399655        0.22951065144125
C            2.23009994267127        0.79298770292505        0.47253377471962
C            1.07230694975291        1.43222451701974       -0.02261932861349
C           -0.09148944744807        0.83079967526974       -0.46735538733448
N           -0.98329209788784        1.58115791389498       -1.11623172159319
C           -2.28141997058273        1.51680414436649       -1.11115244161832
C           -3.11897000720588        0.78416905139136       -0.27771448069354
H           -4.15917216679980        1.07868893845596       -0.22820398006857
H           -2.75122931002845        2.20972117164523       -1.80519977809760
H            1.07010875310833        2.51473532213725       -0.01617583514874
N            3.08691173376099        1.54019448990250        1.21713781396571
H            3.99189074003610        1.14930229541683        1.41242601630176
H            2.96826943366195        2.53582812913977        1.26437237473069
N            2.66920104851319       -2.29469754971147       -1.06342807940134
H            2.19363396412831       -3.11798705618277       -1.38744122712185
H            3.64641197898545       -2.34619285784587       -0.83824828167046
H           -1.49478577483041       -2.06705974048187        0.66077638476844
H           -3.55607666947040       -1.93341436593721        1.47088146932466
H           -4.65466077006050       -0.66803470167409        1.10565908130883
