29
 energy: -49.544350275509 gnorm: 0.000910702929 xtb: 6.6.1 (8d0f1dd)
N            3.76659078460286        2.39595828521608       -1.14787405641735
C            2.98713044349974        1.63071935459562       -0.78136399243073
C            2.06410645043174        0.68686951408634       -0.31254717530777
C            2.43758130225674       -0.64980956027290       -0.33399097544233
N            1.84230871555500       -1.63469023588736        0.37656484901622
C            0.59501180081813       -1.73729194055706        0.66598241712153
N            0.23013713272776       -2.65441273076722        1.58832370361309
H           -0.73887126322523       -2.90089445269083        1.68151307954503
H            0.93276107670398       -3.26803909133753        1.96521379756223
C           -0.50562168363730       -0.91972175355741        0.10813125700336
C           -1.57769129260254       -1.50784399645734       -0.46303871975487
N           -2.64613337051487       -0.92921745825308       -1.06666565021801
C           -3.14573370740486        0.21160822375663       -0.71613739989144
N           -4.27511997056140        0.59689037034186       -1.38733156966762
H           -4.53834865308093        1.56685500093151       -1.36698158260818
H           -4.47123708534086        0.08736819109026       -2.23290073950102
C           -2.76963147190760        1.04894538915441        0.39915618532407
C           -1.52106072854303        1.18930027676023        0.90644094914045
N           -1.27789801140171        2.06053540705425        1.93112673696639
H           -0.37942882767029        2.03443540430955        2.37993123288432
H           -2.05359927342628        2.41433242056972        2.46452757992527
C           -0.33679556244319        0.51164655983674        0.34977311738323
C            0.81955220093330        1.19422950022923        0.19152666977049
H            0.80472181879328        2.26277944214866        0.37333387405214
H           -3.55920310450086        1.66466762852216        0.81312865158901
H           -1.57254508006877       -2.58771096948061       -0.58621926504867
N            3.55995367957765       -1.04914853625634       -1.00062818047192
H            3.92872869372060       -1.95465288959589       -0.76675375050039
H            4.20762084140692       -0.34093549058960       -1.30456369823728
