26
 energy: -42.361255126253 gnorm: 0.000519126915 xtb: 6.6.1 (8d0f1dd)
N           -4.29883886850313       -1.50574048353342       -1.22322301387347
C           -3.31215190757584       -1.04121970502650       -0.85818974069274
C           -2.13690315827267       -0.42980910888186       -0.38393961188893
C           -2.33114818371246        0.78631310874344        0.45002403801231
N           -1.52525279866490        1.77081230396895        0.55899475692886
C           -0.29325591968752        1.85758170540858       -0.02609055754520
C            0.61680124467139        0.89714967562205       -0.29963540566476
C            1.89975469353346        1.33055302249629       -0.85042683321995
C            3.11706175746387        0.82543662190914       -0.63355099184407
C            3.48037957982860       -0.30642471666209        0.20073582532565
C            2.65085473436786       -1.33889188765456        0.50281350250541
C            1.29344459277304       -1.49426760099157        0.10243621639800
C            0.36985434441236       -0.55012827052808       -0.21687286841708
C           -0.94165533059869       -1.01639553181939       -0.61753809889396
H           -0.96039595319481       -1.96805616287967       -1.14244786154691
H            0.93616326243034       -2.51787499202383        0.13638955025337
H            3.07895619227792       -2.17805117264503        1.03803749762387
N            4.81251000460305       -0.36111089105121        0.54780053927622
H            5.07172100743432       -1.02036354092013        1.26276680354930
H            5.32609043817494        0.50417573125242        0.55139016736493
H            3.96181843784698        1.31647149383335       -1.10243633508072
H            1.83349015007807        2.20591104658943       -1.48723650978058
H            0.00203566989129        2.89259188651469       -0.16626102437938
N           -3.48525601666113        0.81033310295157        1.17109777538046
H           -4.25346678512894        0.22131118514803        0.89668837466621
H           -3.69566189528894        1.66906176948563        1.65091683184423
