29
 energy: -55.157943783384 gnorm: 0.000537838315 xtb: 6.6.1 (8d0f1dd)
N           -5.31866465914412       -0.61185955966834        0.66645394400386
C           -4.17506255840604       -0.53694233502750        0.57157635740165
C           -2.78732664566050       -0.40906437960284        0.42306624234839
C           -2.27909335711483        0.49065989934588       -0.57049471200094
N           -1.08971410520156        1.03707359999068       -0.51570699840346
C            0.04994594193863        0.69354964034185        0.03693486834898
C            0.99812467047101        1.66855806075867        0.35103288060855
C            0.51653636691774        2.98421033091670        0.48653985975873
N            0.14974281962227        4.06635080984628        0.61670577389675
C            2.40647230008360        1.47754917197215        0.44545781561088
N            3.12446361276344        2.52539709224535        0.91964843001324
H            2.65951815795490        3.39585205098830        1.11649761309052
H            4.12611034996556        2.52512964849119        0.84627282762745
C            3.11326062449516        0.36817395143469       -0.00951800778710
C            2.67430026750869       -0.88908119432749       -0.42961920305670
N            3.59438377283227       -1.70733848702181       -0.99827128077584
H            4.56463494943024       -1.44748120887776       -1.00170922181683
H            3.35879618196837       -2.67084818018751       -1.16956484653576
C            1.38326579419326       -1.43941916513031       -0.21462274853403
C            1.23459285377118       -2.82652767130401       -0.39977397625859
N            1.14129173849521       -3.95704532358705       -0.58784772045169
C            0.26145337575823       -0.75218429962127        0.26954248836128
N           -0.65229914409762       -1.37315798540295        0.96851349233972
C           -1.91219328579027       -1.14362748202560        1.21933304350991
H           -2.30565419182206       -1.69016573940038        2.06934529070297
H            4.18811201357022        0.50572492053870       -0.05253640137273
N           -3.09042562914734        0.90361589741088       -1.56639276711771
H           -4.07145264901468        0.68424726264140       -1.52665019651436
H           -2.78244225633257        1.66204907136598       -2.15042075459499
