29
 energy: -55.155898302976 gnorm: 0.000829052010 xtb: 6.6.1 (8d0f1dd)
N           -0.44635223280247       -4.04137764754779       -0.01487531003828
C           -0.47170842104485       -2.89302395039240       -0.04588033730385
C           -0.54743279613912       -1.48344052216053       -0.04097197766619
C           -1.79018469470818       -0.92673213330641        0.37449372875603
C           -2.22233429750497        0.38776320409841        0.12314409780863
C           -3.57584337994905        0.64668034360494        0.40650662553857
N           -4.68387898656571        0.85757248331461        0.63971802225512
C           -1.48739116226983        1.49488860204636       -0.39385602566533
N           -2.20985518827388        2.57314683850839       -0.77382660301472
H           -3.20521097241097        2.59315427393061       -0.62911131420977
H           -1.73810315936692        3.42375302830833       -1.03219752722230
C           -0.08823952511956        1.60309001716792       -0.43977539349365
C            0.42921960007183        2.88482773223088       -0.70067083679646
N            0.84115950242193        3.93887333872492       -0.91160961275154
C            0.88495765153697        0.59031267252527       -0.20833367767214
C            0.60944547571104       -0.82505341166171       -0.45901232150951
N            1.50484517506808       -1.51900146746970       -1.14619111823841
C            2.79481782603845       -1.47106991127298       -1.17753852943867
N            3.61843726002831       -0.95117237219836       -0.28596691703078
C            3.27289839814218        0.09530661060629        0.45332648029114
C            2.13137688886716        0.92954998910623        0.28267609174048
H            2.23947121874183        1.94196071883774        0.65392937903038
N            4.18805088915491        0.47088372319068        1.36807383254603
H            4.11119337182180        1.34765515914574        1.85123601398316
H            5.04864288313828       -0.04723574330501        1.41182820250086
H            3.26645657902354       -2.03298204341009       -1.97710756305698
N           -2.65930239526367       -1.77120925212982        0.97107195974602
H           -3.60385244861576       -1.47616894281207        1.15583089003403
H           -2.43216231332982       -2.74922679538145        1.04320817927805
