24
 energy: -44.524137957576 gnorm: 0.000456708242 xtb: 6.6.1 (8d0f1dd)
N           -5.65260023081834       -0.20182772933615        0.50565571705876
C           -4.51522720937577       -0.22996133046582        0.35960174323533
C           -3.11639273814016       -0.26138875200340        0.17682482790470
C           -2.52752909372128        0.77747980895087       -0.60608277336991
C           -1.21449051808678        1.12458670545135       -0.66770835273251
C           -0.06134819493939        0.45100070842636       -0.13619198900436
C           -0.16951469829667       -1.00496442944135       -0.09038599132603
N           -1.16969206557153       -1.61555515212127        0.42517534220065
C           -2.38400715181480       -1.25503695101268        0.79512411290409
H           -2.84654805090843       -1.90472638931774        1.52800316542912
C            0.86650075242596       -1.81899449893265       -0.69635952859481
C            2.19388483074999       -1.63737216633585       -0.58368290917462
C            2.87632685379994       -0.58740375092402        0.12443556853217
C            4.24144009531317       -0.83638203094750        0.40732705513867
N            5.34476749820818       -1.04703282795166        0.63691958576522
C            2.37656336500385        0.63403804368094        0.48151325997521
C            1.08320848101375        1.15121761681453        0.19774046902536
C            0.96312031305262        2.55766005109350        0.31959062606904
N            0.87668742343990        3.69698676021082        0.41585553700422
H            3.06472406386708        1.33293427476998        0.94383603635228
H            2.84520505963522       -2.38312966413779       -1.02291772985348
H            0.50022646686404       -2.69699622099813       -1.21098808285769
H           -0.97723330445945        2.02168174239151       -1.22826849938958
H           -3.22924234514156        1.43007842473581       -1.11024922409226
