20
 energy: -38.433742288832 gnorm: 0.000277616428 xtb: 6.6.1 (8d0f1dd)
N           -5.44437293785197       -0.35495820824083        0.00375895021609
C           -4.30156108312760       -0.24111470500053        0.00259612853791
C           -2.90634781272856       -0.10578073712311        0.00130615878714
C           -2.00140948783786       -1.20848662909079        0.00122486604028
C           -0.74769293063722       -0.64673728941703       -0.00030476822563
C           -0.88336781087306        0.81857661168074       -0.00121251728264
C           -2.22576869924289        1.13860294136630       -0.00020915119796
H           -2.69797951723853        2.10281527018052       -0.00048049618368
C            0.53101778862441        0.95857974538549       -0.00258663599162
N            1.40705339639476        1.93939760707458       -0.00410019037292
C            2.69908078579491        1.63127478559428       -0.00510246770480
N            3.36986927099866        0.50618712764043       -0.00486705312163
C            2.93791296952024       -0.76937087903364       -0.00349894272411
N            1.70726379388982       -1.31785510034199       -0.00203179782913
C            0.67417766386630       -0.51950232955483       -0.00167731148537
N            3.92998104486920       -1.65938351789334       -0.00367570229947
H            4.88153237317327       -1.33266611276615       -0.00473788336039
H            3.71086159316154       -2.64139326469167       -0.00274526282279
H            3.34520026940920        2.50723431228918       -0.00637077081318
H           -2.29110514076462       -2.24249898585760        0.00218245913390
