22
 energy: -41.855050710179 gnorm: 0.000995399866 xtb: 6.6.1 (8d0f1dd)
N            4.02367592693752        2.12474109322836        0.01993969570912
C            3.14891398944677        1.37889351199711        0.02109230409480
C            2.14137749358461        0.41591187124095        0.02321699237090
C            0.79103537708311        0.47328433852416        0.01632341298058
C            0.32059495031835       -0.91081466146928        0.02274626892515
N            1.33735610916799       -1.81324451838692        0.03391533120120
C            2.42129736910090       -1.06760152492296        0.03462668054118
N            3.66504189709000       -1.55796747032165        0.04264812076615
H            4.45658078315358       -0.93946602009578        0.04747874998671
H            3.80110204628109       -2.55289484992600        0.05345696332073
C           -1.00457349555953       -0.50485572191241        0.01127687007384
C           -2.33940116667032       -1.06476371665677        0.00135695701416
N           -3.43509257548904       -0.36909544371104       -0.01034995836716
C           -3.55754691966486        0.99340227398865       -0.01487534413688
N           -2.77450921754723        2.00633628879105       -0.01591371543599
C           -1.40007216087234        2.01484555019126       -0.00914042351319
C           -0.63979252430196        0.91432471798026        0.00429013663057
H           -0.97219641477677        3.00867213426316       -0.01417981382096
H           -4.61259106796068        1.26472716404017       -0.01985220695932
N           -2.42624037529793       -2.40590790398338        0.00429135446365
H           -3.33444869005480       -2.83684905865314       -0.00348975827670
H           -1.59193675696854       -2.96649966860584        0.01284956253140
