25
 energy: -45.839255044007 gnorm: 0.000410608388 xtb: 6.6.1 (8d0f1dd)
N            5.62950766141660        0.54294193959501        0.00430586014287
C            4.48235456124005        0.46111225421122        0.00295981826163
C            3.07666039067290        0.34611948198460        0.00048468874383
C            2.58465900469135       -1.00604519644700       -0.00197613221233
N            1.32866751807753       -1.45653395232205        0.00128101375177
C            0.29349502594315       -0.66595439610371        0.00110502639319
C           -1.11744808616660       -0.85044003071283        0.00352554728711
C           -1.30650932143905        0.60814763001873       -0.00635719479901
C           -2.67014694658100        0.87684851900502       -0.00947340283323
C           -3.30540414888740       -0.41597821765549        0.00198894614156
C           -4.69135177503178       -0.57187681097497       -0.01127146707512
N           -5.83905325484992       -0.65475043854146       -0.03323880835022
C           -2.35092725333950       -1.46463653547916        0.01059591952411
H           -2.59293632838590       -2.51121196436646        0.01895548374075
N           -3.32818599773023        2.06207285480901        0.03131377558299
H           -4.32266194070831        2.05902700751509       -0.12369132010328
H           -2.82645917952513        2.90795117302334       -0.17352722564308
C            0.09861262253027        0.80917963581795       -0.00639782044393
C            1.02988353204720        1.82418216843828       -0.00430822601360
C            2.39379742355481        1.56572158721219        0.00018043810195
H            3.04299515360365        2.43488521315400        0.00332360196385
H            0.70250876308105        2.85475168946406       -0.00334791330986
N            3.49519646625246       -1.99492386963736       -0.00712746003024
H            4.48332757379107       -1.80552994938420       -0.00687370451702
H            3.15517573564272       -2.94147784122385       -0.00635529490469
