20
 energy: -38.407710238586 gnorm: 0.000974090632 xtb: 6.6.1 (8d0f1dd)
N           -2.57507120452808       -3.07469715299873        0.03900706393796
C           -2.24157923936810       -1.97741075356166        0.01597140019262
C           -1.83477120317855       -0.62754019532494       -0.02280893086678
C           -2.74554142957625        0.39929272445276        0.31248067171488
N           -2.63529152497932        1.67831574159513        0.07176595211333
C           -1.63589730522195        2.45398931121941       -0.25692479703801
N           -0.32499270052745        2.28790004773209       -0.10473776654179
C            0.14309008536656        1.06820677635848       -0.06723115223220
C            1.41036555035917        0.44924396464624       -0.04775359248157
C            0.78570519339943       -0.87349300823774       -0.23328959563069
C            1.83497486922800       -1.78666765639803       -0.24195105818024
N            2.99796131278707       -1.14969571995823       -0.06180343905137
C            2.78250420735576        0.19261568485041        0.07424513042873
N            3.80416741719114        1.02785402227356        0.30533826360735
H            3.65783380713067        2.02033117811479        0.32797046891734
H            4.73417436915788        0.64820529199862        0.33350904565296
H            1.82518054157128       -2.85239333467153       -0.37476762312941
C           -0.50211157743440       -0.28621532631743       -0.21028772687870
H           -1.92714164006600        3.43475259364437       -0.62089047252758
H           -3.68086039316734        0.10985231298178        0.78374435029430
