26
 energy: -45.541456156724 gnorm: 0.000760327698 xtb: 6.6.1 (8d0f1dd)
N           -3.60149927724932       -3.46669643914877        0.00685090945668
C           -2.87963129558810       -2.57420143028766        0.00435794574427
C           -1.97479529192143       -1.48784026245604       -0.00005377931824
C           -2.53717826883667       -0.24393572941183        0.00135998068978
C           -1.95989129170886        1.07101452127339       -0.00105120356498
C           -2.90139495809282        2.12003837701284       -0.00754914543962
N           -3.64869213619250        2.99420643946404       -0.01348989747135
C           -0.62252496685276        1.45323655577585        0.00182276667153
C            0.43710888970847        0.49642823650289        0.00395522866761
C            1.83210397626757        0.54368211190085        0.00755173126195
C            1.89261359910971       -0.92513742728539       -0.00152391025575
C            3.17687421628825       -1.31727770757028        0.00172235474911
C            3.96828150624784       -0.07562719665065        0.01710250005179
C            3.14620575215052        1.04134485060253        0.01973585572946
H            3.47891756930060        2.06255087664670        0.02933032271743
N            5.32761745565193       -0.08861738120299       -0.02888699962791
H            5.82099131238862        0.76553814146019        0.16638976214815
H            5.80404771845668       -0.94531699362961        0.19389387383964
H            3.60898400807480       -2.30125741705273       -0.00514323587804
C            0.40914379156713       -0.96607170324788       -0.00277125127373
C           -0.57717721293656       -1.86925385646403       -0.00456591879397
H           -0.35758717042561       -2.92702976751611       -0.00883632644474
N           -0.26195374747720        2.75599009682101        0.01205995992135
H            0.71260350627836        2.99573771387832       -0.02231339131343
H           -0.95653275456466        3.48281539748007       -0.01644622351556
H           -3.62266963454391       -0.22366478559482        0.00356462964850
