20
 energy: -33.610484538850 gnorm: 0.000434503209 xtb: 6.6.1 (8d0f1dd)
N           -3.09197454272695       -1.70843387679368       -0.05536870231448
C           -2.40496534774827       -0.54526824173031       -0.01623353693241
C           -1.02491742049943       -0.34438794964921       -0.02411342243302
C           -0.77099210240625        1.09777390640717       -0.01259742040827
C           -2.00520642636006        1.75690118846163       -0.00317378078098
C           -2.98046913265518        0.76663891211112       -0.00500497112847
H           -4.04156383184117        0.94569830517084        0.00229821307252
H           -2.19020810756723        2.81533005120991        0.00619123604944
C            0.61837089437263        0.87565589821081       -0.00744919397606
N            1.71713780958902        1.60728885030502        0.01089329112881
C            2.89041997726761        1.00533799907282        0.01515085153577
C            3.24396313340219       -0.35700232314158        0.00661430588413
C            2.45788786729613       -1.50252510766236       -0.00785388075928
N            1.13230725982850       -1.66958747204240       -0.01815099434942
C            0.36462714176738       -0.61043447119736       -0.01971557266587
H            2.98928893316277       -2.44993002894326       -0.01011905086790
H            4.31181595575777       -0.54044454187284        0.01427420953608
H            3.72008151510941        1.70646556104164        0.02907195998428
H           -2.59198353965615       -2.57188625565715        0.06160657824710
H           -4.08463359909267       -1.70466113720079        0.09963626937804
