27
 energy: -44.461136322406 gnorm: 0.000699257291 xtb: 6.6.1 (8d0f1dd)
N           -3.36600810039759       -2.62318593137188        0.02280154211659
C           -2.92348056754032       -1.55828780610829        0.02118685872862
C           -2.33732188633705       -0.30031192542999        0.01123567490981
C           -0.94609099480779       -0.00326102469091        0.01082710871556
C           -0.79033894775238        1.43519100403065       -0.00340640458372
C           -2.00805842275512        2.02717143772460       -0.02224883228258
C           -2.98173469333052        0.94780555848692       -0.00803355305353
N           -4.33043251463404        1.14900786855925        0.05341995634636
H           -4.68333857370924        2.04523955267194       -0.23719796721067
H           -4.92318204365567        0.35633478444803       -0.13224461058589
H           -2.27398742591646        3.06898593627626       -0.04437114134277
C            0.69710451986095        1.24192801200598       -0.01885427961667
C            1.83204256445796        1.96334175948869       -0.02149640884886
C            3.13162505784078        1.38299513354907       -0.01964846397600
C            3.50840661058206        0.06090231167009       -0.03446237937848
N            4.87193225974727       -0.19953151941886       -0.10985147686518
H            5.18390024370938       -1.10101191219674        0.21103024645741
H            5.48499360778642        0.56058312081817        0.13551947212224
C            2.70383628295340       -1.12538258070343       -0.04892262103296
C            1.34341394152707       -1.28834513898795       -0.04894850184430
C            0.44405675250089       -0.18315778570749       -0.01850753683905
N            0.77338167220545       -2.52714485587258       -0.12079569897737
H            1.33708245457752       -3.34670988449297        0.01642782711949
H           -0.21619877674224       -2.61063853104422        0.03780604279649
H            3.28035819886506       -2.04476152048150       -0.07359330638625
H            3.94726972664288        2.09631700457790       -0.01196998832764
H            1.77836198732219        3.04287524009996       -0.01612685206097
