24
 energy: -46.121059656788 gnorm: 0.000889356163 xtb: 6.6.1 (8d0f1dd)
N            0.66715609240442        3.84597400731770        0.01775226422632
C            1.09026230937846        2.77845665588673       -0.00491008336064
C            1.54139945698075        1.44541094607116       -0.02010630458885
C            0.60009056184779        0.42118504142641        0.06918058641538
C           -0.79094186843749        0.22702568736904        0.09282055689944
C           -0.61311036551280       -1.23213293262276       -0.05052825499609
C           -1.85139617935188       -1.81920407366744       -0.14770679726704
C           -2.79807041702979       -0.76037417137482       -0.04942479852503
C           -4.18470554125317       -0.90960838529069       -0.10592963649561
N           -5.33074092060346       -0.99560953447757       -0.15554837836246
C           -2.15635878490099        0.51573915186932        0.09705223281702
N           -2.77518524898543        1.70465522164838        0.24354093698658
H           -2.23651090161248        2.55279207428903        0.22696506284601
H           -3.77337425923017        1.75988379303129        0.14126412715721
H           -2.10886810167726       -2.85442741508878       -0.27476780112684
C            0.80149213051534       -1.05141395084348       -0.05002194982301
N            1.85886758292958       -1.80486642512306       -0.08504961412002
C            3.08530951478556       -1.25294933233219       -0.00404014633191
N            3.52849213630259       -0.00489271671335       -0.19092607638162
C            2.89583151992832        1.13781378101679       -0.24309308543667
H            3.55072775819670        1.97360614824930       -0.47948829063134
N            4.06169925216894       -2.13982780276348        0.23599729368935
H            3.82529373532350       -3.11193058890494        0.33138940553112
H            5.01630269653321       -1.82732985547268        0.26483072287867
