24
 energy: -42.102718620258 gnorm: 0.000776070546 xtb: 6.6.1 (8d0f1dd)
N            5.06310676544331        0.53538170909386       -0.01482122684732
C            3.97816106672014        0.15784167989884       -0.00748827886843
C            2.63468433049940       -0.27955979696220       -0.00039657155228
C            1.66979593856261        0.73152689582715        0.00495335194931
C            0.28601576427214        0.42652733684848        0.00710674223118
C           -0.92527509488639        1.15929036359103        0.00786033462228
C           -1.68177270993661       -0.07246565471307        0.00423421983733
C           -3.01742114566284        0.23058768344378       -0.00123784759655
C           -4.11839360692155       -0.63127835883583       -0.00899853604796
N           -5.01964779686463       -1.34375845532330       -0.01602071882524
C           -3.09036426281284        1.68761346982980       -0.00016857685263
C           -1.83273436531803        2.24274492434074        0.00453970032464
H           -1.61143038423746        3.29447492256952        0.00636765877011
H           -4.02039310611425        2.22563063826791       -0.00347598821970
C           -0.41478653538894       -0.84122226557171        0.00562303526238
C            0.00126059753306       -2.12744646280818        0.00424838438951
C            1.37163026227928       -2.49504430890220        0.00215826230205
C            2.48114944488191       -1.69838446921296       -0.00057365074409
H            3.43248714505860       -2.21842566500754       -0.00391178562985
H            1.56078809638046       -3.56063037471255        0.00132491837183
H           -0.73382465625860       -2.91912930486539        0.00366210508364
N            2.01736110072416        2.04116565579901        0.01294223475391
H            2.98333294473008        2.31857413878104       -0.00567096346106
H            1.29824778991694        2.74092533232392       -0.00311662545304
