23
 energy: -42.391030032820 gnorm: 0.000807563880 xtb: 6.6.1 (8d0f1dd)
N           -5.63535652807517       -0.48236811908285        0.00064771316383
C           -4.48767113768734       -0.42333830064284        0.00197338200782
C           -3.08985291609850       -0.36396972632476        0.00072181317169
C           -2.24537804492735       -1.52458202407173       -0.00026718168294
C           -0.96710359039298       -1.03913942132550       -0.00056868157362
C           -1.01236831166601        0.42397000979808        0.00020614603717
C           -2.33481177150101        0.83127238126969        0.00082954737970
H           -2.74087070075671        1.82515658695949        0.00153769602836
C            0.40889478285785        0.47128022866068       -0.00028678972870
C            1.44502920194165        1.40497336288016       -0.00000045002692
C            1.13837893295468        2.78175192451610        0.00247915842861
N            0.89078018811490        3.90223025522060       -0.00085977098948
C            2.79848429053296        1.02271151841036       -0.00057857477829
N            3.39173983431558       -0.14244892881458       -0.00137188935421
C            2.88557983504403       -1.38579664686866       -0.00180037226621
C            1.54337344553566       -1.84045758196043       -0.00160836547229
C            0.47839238096418       -0.98803671548273       -0.00098369370760
H            1.37217462435051       -2.90792314926416       -0.00194684363686
N            3.85581965710827       -2.31464176461731       -0.00242194151191
H            3.65048248739354       -3.29806124024543       -0.00276128324569
H            4.81143599604969       -1.99882188487887       -0.00248391333794
H            3.51312210192314        1.84416236647516       -0.00017458245327
H           -2.60169779468152       -2.53800642881052       -0.00047441025120
