24
 energy: -46.093133962465 gnorm: 0.000474059634 xtb: 6.6.1 (8d0f1dd)
N           -4.32843193308276       -2.48887589902191       -0.02731010084500
C           -3.53166528547874       -1.65817843934885       -0.01483331821135
C           -2.56726134999602       -0.63729145361229        0.00000578724746
C           -1.19080863260870       -1.09897278187578        0.00912863371466
C           -0.16007157012507       -0.25485971218356        0.01121536324470
C            1.33247415119066       -0.26651802157114        0.01346869156295
C            1.31102427463143        1.19358872901004        0.01321359189173
N            2.55461169873667        1.73584080504070        0.01543466342960
C            3.35813405761350        0.69516973048527        0.01868155184290
C            2.63433631234440       -0.63308853333884        0.01996713297821
C            3.29044032300376       -1.86160052780677        0.02700495970310
N            3.88097876656912       -2.84784880905903        0.03328904400469
N            4.69212276203567        0.78119038699002        0.02008189776919
H            5.12210617998453        1.68899071159538        0.01761833090793
H            5.25878471227881       -0.04845708659768        0.02402262004682
C           -0.08206531237390        1.21563750101111        0.01353457571818
C           -1.15401101753697        2.14928512287413        0.02772773633042
N           -2.40766594214776        1.88607348468001        0.02295489717394
C           -3.05026339509713        0.66859275783156       -0.00021237752091
N           -4.39176472665996        0.87726599266626       -0.02282146081155
H           -5.04205688738162        0.11170237120638       -0.03323774111538
H           -4.71595644240457        1.82722523488093       -0.01105843981193
H           -0.90596167458816        3.20717606946490        0.04857851829038
H           -1.04096242360727       -2.16888766302092        0.00898177565919
