24
 energy: -41.311618914108 gnorm: 0.000720856650 xtb: 6.6.1 (8d0f1dd)
N           -0.76761493392446       -3.31192246441584        0.04145127813494
C           -0.94174389638458       -2.17395391688698        0.01515132546587
C           -1.13821025597409       -0.78575236959363       -0.00456431029416
C           -0.03176117715114        0.03655795502520       -0.01518230928786
C            1.38349045674903       -0.07292893197800       -0.01409909705270
C            1.49910399691176        1.39144599585405       -0.00312023558959
C            2.85258192255753        1.71496265176103        0.02529911681343
C            3.54525190733238        0.50358185837952        0.02793547338250
C            2.65678877771514       -0.62022735692411        0.00473055928794
N            3.02566629668480       -1.92822821309300       -0.05909659558538
H            3.96968491062482       -2.17121865153033        0.18775129045717
H            2.31784008237792       -2.62482482424546        0.10361004238345
H            4.61708106564905        0.40988871220596        0.04683313607985
H            3.30606419603959        2.68948093798151        0.04301754144958
C            0.08695640494201        1.50850339755630       -0.00693836236443
C           -0.91220363903303        2.46664836600219        0.00324261521557
C           -2.25924373362210        2.14168579140889        0.00556439743844
N           -2.91149733910832        0.98726697892798       -0.00005601711133
C           -2.47921253385011       -0.26091019199216       -0.00451935624838
N           -3.47895119850602       -1.16876390575818       -0.00726834431788
H           -3.28921435925887       -2.15607042690586       -0.01013434595287
H           -4.42464397985743       -0.82890243452181       -0.00615573425885
H           -2.95365235694868        2.97932102889167        0.01396466440569
H           -0.63686331516517        3.51197326515102        0.01002929774896
