22
 energy: -37.043330431023 gnorm: 0.000469447288 xtb: 6.6.1 (8d0f1dd)
N           -0.92987704781903       -3.02045497846731        0.16109246080667
C           -1.11450563219023       -1.65704964681440        0.03389241932558
C           -0.05446409875976       -0.80545049236032       -0.01661321833291
C            1.45451031378934       -0.83236532064926       -0.03757395851714
C            1.42872100434960        0.61297683612799       -0.11530993633709
N            2.67799083544842        1.14929440809089       -0.10742600295566
C            3.46073485563131        0.09717598186764       -0.01746248743637
C            2.75621703080466       -1.18390530562996        0.05086663192438
H            3.23339162573269       -2.14133568611232        0.15061498891779
H            4.52919008126331        0.21525884169832        0.00614711415445
C            0.02352014842018        0.62629451987675       -0.05779897643238
C           -1.02874162097934        1.60543805543821       -0.00199462701683
N           -2.30684049345956        1.35122286250029        0.00645037405173
C           -2.90356562765574        0.14114070484612       -0.00330539317536
C           -2.45522690724331       -1.14862532734179        0.01943213920364
H           -3.22427882929524       -1.91158699845661        0.02971750864847
H           -3.98353368355257        0.26084657268635       -0.02210812490705
N           -0.63546952814913        2.89514521172793        0.04032915704212
H            0.34375406650337        3.11661966760699       -0.00333557739755
H           -1.32864168675365        3.62157338995743        0.05762760087671
H           -1.68775994588940       -3.61147545927141       -0.13875438677845
H           -0.00897231589588       -3.35816019022166       -0.06867795756481
