25
 energy: -45.833268657978 gnorm: 0.000554263850 xtb: 6.6.1 (8d0f1dd)
N           -1.97372113477718       -3.50112381889977        0.00507901573422
C           -2.15922458779012       -2.36730144270114        0.00324621554483
C           -2.28904217329135       -0.96373208004970        0.00100567881798
C           -1.11517467955504       -0.22147056374364       -0.00510167154150
C            0.27671650642682       -0.39233434190512       -0.00735953140863
C            0.48884353305039        1.05796815594553       -0.00650239717030
C            1.86486530768645        1.30634835398869       -0.00248229083862
N            2.51488027242439        2.48068060418516       -0.00615742150192
H            1.99611170985890        3.34002209979676        0.01588143665100
H            3.51969794606899        2.50365253672918        0.01899456401583
C            2.49215417776633        0.01328830647322       -0.00265343162426
C            3.86954846080562       -0.18424621507752        0.00503612878389
N            5.01057638193255       -0.34111481548499        0.01421046177970
C            1.52172955723925       -1.03835963277322       -0.00633679745593
N            1.78115010438477       -2.35458802514981       -0.00844487130387
H            1.02483557725668       -3.01695733910260       -0.01012624878140
H            2.73077730069120       -2.68457393867436       -0.00735851540701
C           -0.90846588197108        1.27420777031451       -0.00407589125303
N           -1.71259403961728        2.29881121814859       -0.00210625294799
C           -3.03213705354409        2.14060524665198        0.00103790518047
C           -3.84821380298561        1.00614462974079        0.00568180953496
C           -3.55014062612780       -0.35270343642460        0.00634359086023
H           -4.39829241848870       -1.02744031308898        0.01187526962856
H           -4.90802793570642        1.23196343303704        0.00959516032910
H           -3.55432115853770        3.09263839736399        0.00033217337368
