28
 energy: -49.002891032981 gnorm: 0.000823579320 xtb: 6.6.1 (8d0f1dd)
N            6.11015493178241        0.43019989953388        0.02720191165064
C            4.95828686249788        0.42359202073941        0.00452058208399
C            3.56747356441709        0.36741895570189       -0.00495242305771
C            2.69068373750184        1.48777846224846       -0.01288319583512
C            1.42046407190701        0.96508451757202        0.00262365943224
C            1.50012003898787       -0.49811177671218        0.01636291250867
C            2.83491055326780       -0.87007745125462        0.01376600500777
N            3.40471762876567       -2.11120908859227       -0.04106233461673
H            2.84740499424632       -2.89486711334234        0.25265383373532
H            4.39005469794164       -2.16559339468787        0.16212094171056
C            0.07510901546423       -0.58190855350505        0.01942077714047
C           -0.89901826531289       -1.53998825711624        0.02035418158506
C           -2.27968290482696       -1.27815475419113        0.01131525307139
C           -2.93369542371182       -0.01280508398766        0.00469310511723
C           -4.33842105733364       -0.09252711231641       -0.01425169686101
N           -5.48933881735198       -0.15690861505243       -0.03795685123799
C           -2.42707801598670        1.31781138209959        0.00992500707530
C           -1.08248964398825        1.73116646243651        0.00712840853745
C           -0.01029927025761        0.88819792194469        0.00841346357161
H           -0.90079673907898        2.79836629145142        0.00274204742835
N           -3.34709645607453        2.31330099205972        0.01950024462428
H           -3.04750046346598        3.27098876582022       -0.00168742468975
H           -4.33188222323265        2.11132982279224        0.00060755473283
N           -3.08471317229676       -2.36934025190299        0.01773177051623
H           -2.68276442591072       -3.28834009037961       -0.01551139627444
H           -4.08521166955144       -2.27618627868559       -0.01912657225100
H           -0.60334944530955       -2.58182774625699        0.02273443459760
H            3.01313239991047        2.51286566658331       -0.02650569880320
