20
 energy: -39.189593781116 gnorm: 0.000865585008 xtb: 6.6.1 (8d0f1dd)
N           -5.16626005019892       -0.93374948072833       -0.00289012097778
C           -4.08396533753178       -0.55642529740670        0.00060132263465
C           -2.75319997525832       -0.06976896121989       -0.00000019054683
C           -1.74662054705627       -0.99663147824272        0.00010157331246
C           -0.38688393014360       -0.62284504056957        0.00086959836614
C            0.88311646687685       -1.21637809052426        0.00111269816487
C            1.53712944838540        0.07684078378492        0.00063502435560
C            2.87956269480479       -0.17819352301816       -0.00029311566115
C            3.98211472502364        0.67880271968535       -0.00103749870844
N            4.89020589746291        1.38139550631353       -0.00300334300918
C            2.93969739480646       -1.65578379076894       -0.00008049126568
N            1.77380549898726       -2.24263209959306        0.00074572566288
H            3.85015249636165       -2.22617161741510       -0.00049061798152
C            0.20155615420817        0.71919719324055        0.00082676724716
C           -0.35110934553647        1.95081505417489        0.00076193368536
N           -1.68431099441874        2.21231479887474        0.00107768931047
C           -2.66601511225669        1.39405133867148        0.00088829505546
H           -3.63901578152049        1.87962307654148        0.00146952746054
H            0.26582183917577        2.83981708582789        0.00060082529682
H           -1.98947685037160       -2.05164424302815       -0.00025606550182
