27
 energy: -49.269052253886 gnorm: 0.000773977893 xtb: 6.6.1 (8d0f1dd)
N            3.30257358578907        2.96217104162213        0.02462843651965
C            3.04861135401023        1.83838950128114        0.01822943785377
C            2.68444397264740        0.49792500675426        0.00418539908346
C            1.36183871551841       -0.02757856064840        0.02076219596316
C            1.44817246639498       -1.48797143389391       -0.01194457068672
C            2.73819866150505       -1.86362285418132       -0.05135811127042
C            3.52523650108136       -0.62285797707336       -0.03761185410378
N            4.87286085343272       -0.60658219356941       -0.04516810135049
H            5.36395825024302        0.26885961186724       -0.09354220270243
H            5.38924127984662       -1.46011889776897       -0.15499085486254
H            3.17987089631139       -2.84266630014918       -0.08760241917118
C           -0.04710161554036       -1.54199609800963       -0.00257105289884
C           -1.05834997932380       -2.41748706619923       -0.02081493790193
N           -2.38445832865150       -2.10247403697064        0.00463119741515
C           -2.94920489561807       -0.94300859516484        0.02962908513913
N           -4.30740162725771       -0.99573452375276        0.12660271282550
H           -4.72559126867392       -1.90717261044255        0.06300376102646
H           -4.87674322470543       -0.18054679518085       -0.01660672998858
C           -2.42032954626603        0.43984414591330       -0.00333875508421
C           -3.38622335158544        1.45692299090174       -0.04571507902086
N           -4.16889081362658        2.30174671236243       -0.09161819060782
C           -1.09982225236539        0.86241491095387        0.00641632153611
C           -0.02541400794216       -0.07783664174495        0.02147240345725
N           -0.76454958652741        2.16941970215050       -0.00792384995449
H            0.20403618257897        2.43966874223456        0.00460788412951
H           -1.47341618636921        2.88295873720044       -0.01836967509755
H           -0.87664831170613       -3.48442918089152       -0.05099460064731
