19
 energy: -33.899844539683 gnorm: 0.000321006086 xtb: 6.6.1 (8d0f1dd)
N           -3.29929000182419       -1.52831332732873        0.00442414298512
C           -2.28975861974111       -0.64897712033484        0.00322865991619
N           -2.69858957454370        0.62443147453090        0.00291374579262
C           -1.99902138318764        1.73986293590577        0.00222205809293
C           -0.62542752044328        1.98203115133111        0.00184264109065
C            0.27224068831100        0.93679086581085        0.00165551874067
C            1.67466812966172        0.66998945528788        0.00081362910426
C            1.41594398034692       -0.77584409448028        0.00085120521470
C            2.65797208432969       -1.37720258284140       -0.00020037885394
N            3.61699026992602       -0.42331798757561       -0.00077718427177
C            3.05539881943101        0.79796717661144       -0.00031608511851
H            3.67673586690249        1.67424050558657       -0.00069368776000
H            2.93715657423878       -2.41409993015467       -0.00049821542774
C            0.00640019886635       -0.51785702538352        0.00178931723198
N           -1.07451245007356       -1.23726558075376        0.00241794743746
H           -0.27501452993533        3.00451873051607        0.00147627796317
H           -2.64472580525986        2.61603019563035        0.00196639796428
H           -4.24589277383725       -1.19026133868313        0.00495174302194
H           -3.09127975826809       -2.51187001427502        0.00458506397596
