23
 energy: -40.798275372765 gnorm: 0.000998023795 xtb: 6.6.1 (8d0f1dd)
N            3.56763996849051        1.82182758671841       -0.02203392958015
C            2.46672719718894        1.03376379586898       -0.00493574214601
N            2.76236924197156       -0.25814358047727       -0.00068737288982
C            1.98236038297258       -1.33656000185120        0.01864820875013
N            0.65516020785982       -1.52421276544292        0.01252473630085
C           -0.15854260227547       -0.50182276725064        0.00861203793329
C           -1.55646967793166       -0.31321299858105        0.00403771204546
C           -1.37318136846158        1.14783211540329        0.02878043124737
C           -2.63824552178092        1.68571507183540        0.04609403265792
N           -3.56309198433363        0.69377397129447        0.03551522041944
C           -2.94425800095408       -0.50671986369679        0.00565837817571
N           -3.65833278268054       -1.66361461734384       -0.07984889616209
H           -4.63809285174717       -1.58155718250818        0.13722596015224
H           -3.19692536822070       -2.51004440030557        0.20703536255653
H           -2.96776107550762        2.70857097812151        0.07332469596149
C            0.05067248677862        0.97665131520880        0.02448756276091
C            1.20627008108104        1.69061091337759        0.01844450683608
H            1.19274239069186        2.77270224727669        0.02268478088024
N            2.67862974388429       -2.49250040451524        0.04428719731826
H            3.68134836144335       -2.46688940394314        0.02833551833048
H            2.17615490199674       -3.36104989805721        0.03451125226802
H            3.49268584728865        2.82070705901290       -0.08015446976677
H            4.46883736244540        1.38166195075507       -0.07436131004958
