22
 energy: -42.660073958189 gnorm: 0.000999009808 xtb: 6.6.1 (8d0f1dd)
N            1.48951588813769        3.50027180463281        0.01046453378982
C            1.75544215534990        2.38326666800526        0.01083392287003
C            2.00332629558534        0.99836367698699       -0.01364792284447
C            3.25324952307585        0.44434619010191        0.32244521471285
N            3.66560658700312       -0.77218492378301        0.08075010164180
C            3.07058446960127       -1.89069830680351       -0.23424722802060
N            1.81060944950416       -2.28188583821095       -0.05382743528890
C            0.88128158513962       -1.36637164941336       -0.01707106228016
C           -0.53815722921296       -1.30409890083123        0.01921907554500
C           -0.48015980428600        0.15768041213148       -0.16709272106741
C           -1.77955492100803        0.66795868510840       -0.13687078300306
N           -2.20223518372017        1.93456837414149       -0.28006573643285
H           -3.18124388319147        2.14879679905006       -0.19444578329602
H           -1.53707847503537        2.68549730550426       -0.34609302595302
C           -2.61836027287745       -0.48555781640285        0.07280414317183
C           -4.00898656727274       -0.39406954082775        0.17215807499279
N           -5.14994636191631       -0.27458321361920        0.24914502867262
C           -1.85750259174303       -1.67631604243258        0.17895114004689
H           -2.27182369009015       -2.65236798541522        0.35095822447447
C            0.92441821460737        0.12576619451498       -0.16993890573823
H            3.73145381624581       -2.66257948163355       -0.61849914193980
H            3.99400849930327        1.08833533819718        0.78688804454507
