23
 energy: -41.569710472018 gnorm: 0.000555252890 xtb: 6.6.1 (8d0f1dd)
N           -4.06358106301005       -2.12696565500077       -0.11402474557697
C           -3.10128093256569       -1.49719667109161       -0.06407932403552
C           -1.93339861530420       -0.71880162746534       -0.01277585564609
C           -0.69850978477178       -1.44807036170763       -0.03950959460743
C            0.48787306820166       -0.85442837556664        0.16011415231874
C            1.94909385354063       -1.11225633101655        0.17489063429190
C            2.21922646189548        0.27423166864496        0.60276503136187
C            3.60371207255241        0.46249381267636        0.36868639376378
C            4.01387668116426       -0.72807552560172       -0.18216713658923
N            2.97946615244174       -1.63324845298889       -0.40209573143044
H            5.00360215151269       -1.00075352511900       -0.49834230222355
H            4.22159195351297        1.30103015338923        0.62581072221068
C            0.87168868478772        0.53197017233242        0.33283144332649
C            0.07118201007726        1.67628487810024       -0.03707948300221
N           -1.22370843142425        1.68059169308987       -0.10150901819193
C           -2.11231663736884        0.67148276847796        0.04964364139704
N           -3.37254119062986        1.15362709282701        0.22067860625652
H           -4.16150792005492        0.53177155025385        0.17964639162598
H           -3.51246890825313        2.14075413680860        0.10033575105942
N            0.71996018764518        2.83018557581620       -0.28988958774669
H            1.72405082605717        2.85310729175954       -0.28917869837104
H            0.19765759790699        3.63194309121861       -0.59652488721853
H           -0.75887436081282       -2.51483780473723       -0.19892495227342
