20
 energy: -38.490611664585 gnorm: 0.000817003981 xtb: 6.6.1 (8d0f1dd)
N            1.30943217258882        0.03997857318253       -0.04703005273184
C            0.16314983544393        0.02921704634049       -0.02398916517383
C           -1.24792870107562        0.02952485129003       -0.01662666785334
C           -1.96841920212946        0.66985790061244       -1.01183661310775
C           -3.37154596211916        0.65822880706377       -0.98573668517974
C           -4.12464631995252        0.00445398905208        0.03882347382372
C           -3.45280631885853       -0.64728450715502        1.05199332938722
C           -1.94906735483814       -0.63026339504102        1.01688059835036
N           -1.51164397273941       -1.29882291633001        2.05759502405395
C           -2.66085356541429       -1.70231598555634        2.69380217209068
N           -2.60217716592370       -2.41462255763647        3.80500697982140
N           -3.82627066819306       -1.33288836498370        2.12398994954138
C           -5.49170306901381        0.23313480891290       -0.31016132483883
N           -5.59601419425716        0.94444519564446       -1.41961970578736
C           -4.34071498848609        1.20972791370838       -1.84083842974127
H           -1.44559380398563        1.17892159195737       -1.80922647028625
H           -1.70108223271847       -2.65855964897474        4.18045776601530
H           -3.45473827213870       -2.70045910441579        4.25599157411602
H           -6.36074997437437       -0.10534154678968        0.22307517325671
H           -4.18223624181455        1.78321734911829       -2.73670092575656
