23
 energy: -36.854875818812 gnorm: 0.000912853545 xtb: 6.6.1 (8d0f1dd)
N            3.96808811134072       -1.05930998669589        0.00680818676323
C            2.74100914608146       -0.49079720309495        0.02410286718213
C            2.51824615904858        0.92649871491784        0.01192647567429
C            1.16580239539284        1.14128082865010        0.00363710905189
C            0.39883679095866        2.32698288276340       -0.00239347028832
C           -0.96505626613878        2.27482025466453       -0.00317836682338
C           -1.60922536331540        1.01611864756084       -0.00029385385442
C           -0.86918282385972       -0.20125945310252        0.00213422512385
C            0.51000337873750       -0.19485574451903        0.00688814967334
C            1.51838505078283       -1.16067693263457        0.01937483582351
C           -1.88979331879737       -1.23224449258938        0.00019571894750
N           -1.68213961155148       -2.55030071360985       -0.00049423959483
N           -3.11973363605516       -0.70775209275823        0.00053534933509
C           -2.95251722568367        0.63115604762747        0.00030881023548
H            4.06242797314100       -2.05049032124056        0.13870815355196
H            4.78133850199585       -0.48488498073601        0.13734090568497
H            3.29702351443294        1.66611692152990        0.01128323675735
H            0.91501767618942        3.27652207243789       -0.00554686078899
H           -1.55926691808620        3.17714637319566       -0.00711123213571
H            1.40219436423797       -2.22930976028020        0.02757044791506
H           -0.74701936695999       -2.91404610726231       -0.02346639531181
H           -2.47413648091262       -3.16904915785209       -0.01670823413613
H           -3.81826060707942        1.27045820672814        0.00013398051389
