21
 energy: -37.441204810739 gnorm: 0.000636755015 xtb: 6.6.1 (8d0f1dd)
N           -2.49850748738071        1.12152550753533        1.44327773828873
C           -1.61598390027868        1.04238952806819        0.45551480257157
N           -0.45721816589786        0.37810280220443        0.61490229218966
C            0.19686438712822        0.48836121911462       -0.55600045465017
N            1.38226661186244       -0.03086949033815       -0.80960152352549
C           -0.55809144983754        1.25147586315530       -1.51815508547386
C           -1.75156056158422        1.62072509501556       -0.86408617643040
C           -2.73565160373690        2.37669151920130       -1.49777106800615
C           -2.54408978521626        2.78265170526231       -2.81129077297080
C           -1.37746276216561        2.43278036218125       -3.47923709094321
C           -0.33001843486832        1.63476938863023       -2.82208113874602
N            0.67278837482659        1.44681227795516       -3.68902549124242
C            0.24175523770983        2.09324442884178       -4.78555198252052
N           -0.94723825421025        2.68975835406617       -4.72802492592114
H           -2.29058862830146        0.67578444881008        2.32099168451616
H           -3.36317152126183        1.61852598934362        1.32146166503973
H            1.88050649600829       -0.55837483374904       -0.11246074397759
H            1.76773915881733        0.12312547772360       -1.73075954615242
H           -3.64405188251457        2.64931963575642       -0.97815662209950
H           -3.29507712435637        3.36866974675484       -3.31852234339372
H            0.84090129525785        2.12547097446694       -5.67871321655248
