18
 energy: -34.235731061541 gnorm: 0.000520471517 xtb: 6.6.1 (8d0f1dd)
N            1.52593063660294       -0.63683361876156        0.20297524756431
C            0.43085660696671       -0.39731821770693        0.92355678651297
N           -0.43256691730370        0.47795962740724        0.37667170654428
C           -1.52477673651165        0.75046988665115        1.04248295146331
C           -1.89818330989061        0.15151339512654        2.39505970556065
C           -0.99453882572618       -0.74127045648176        2.92798904114958
C            0.19391275440321       -1.02226441339732        2.17865981428833
C            0.89726428072756       -1.94361860161950        2.96157255632102
N            0.24190461709750       -2.23844550210781        4.10587546586043
C           -0.87830189182901       -1.54017238545822        4.10798297980778
N           -3.06601695738266        0.66601390956675        2.74315020461718
C           -3.37147614850266        1.48735261192074        1.71821595606624
N           -2.51488505554426        1.57695455145482        0.70288263226127
H            2.23677544575827       -1.27399702351838        0.51743436667870
H            1.62280811650931       -0.15516912820389       -0.67710164994988
H            1.84496743685932       -2.41216129401090        2.76071060127102
H           -1.57909097164614       -1.60133363004521        4.91907412543827
H           -4.28589308058791        2.05442028918424        1.72460750854450
