22
 energy: -37.142171370087 gnorm: 0.000631311674 xtb: 6.6.1 (8d0f1dd)
N            4.29445294983969       -0.58534747672262       -0.01054223817386
C            2.98805734050563       -0.27246048804567        0.00745763719435
N            2.57956442710013        0.99606000024630        0.00532424736965
C            1.23097428390696        0.93986938123044        0.00051229124977
C            0.34241245184713        1.99478379690854        0.00149651373634
C           -1.03359111093718        1.74651212787294        0.00072698961747
C           -1.49550458369907        0.44683873564581       -0.00077931495680
C           -0.62340156900393       -0.68232487576426       -0.00207092676430
C            0.76886790657619       -0.46989798471040       -0.00075211872044
C            1.90709546054346       -1.22478625298066        0.00338554069084
C           -1.46162508249938       -1.80052670998715       -0.00391824361926
N           -2.76982314634980       -1.47395683507226       -0.00316360966420
C           -2.82284907500572       -0.13899549169828       -0.00118321702336
N           -3.98467897160943        0.52040569505205        0.00149134242142
H            4.59345001115496       -1.53659275181541        0.10436795589383
H            4.96341204798952        0.16038306810379        0.06669895694746
H            0.71573839761987        3.00687377562810        0.00265899119251
H           -1.72239969356268        2.58157379898081        0.00100855920323
H            2.01550861144686       -2.29153808541186        0.00360202277063
H           -1.17651752214722       -2.83743773096685       -0.00609670953682
H           -4.00930748152552        1.52382891137818        0.00033454204609
H           -4.84005207329047       -0.00747242627156       -0.00010351617455
