21
 energy: -33.408974169572 gnorm: 0.000413987468 xtb: 6.6.1 (8d0f1dd)
N           -1.95966960356796        2.23914277219096        0.00105108092797
C           -1.77099595593318        0.91615840438138        0.00108402403895
C           -0.58408270973792        0.18370887162780        0.00121763474344
C           -0.98898130216260       -1.18237537445771        0.00117274168567
C           -0.09393550106224       -2.22299701425680        0.00131769976712
C            1.28690089116434       -1.93702118282104        0.00151129495477
C            1.72778151227488       -0.64038185314008        0.00155283326197
C            0.79695427345763        0.50180372576123        0.00139744557117
C            1.54638455615200        1.64190014072933        0.00146624081057
C            2.93622403757939        1.26355690719967        0.00166987023637
C            3.05104821934683       -0.09142721150342        0.00172497928099
C           -2.44518892442095       -1.13623052926325        0.00098805475416
N           -2.89442270103172        0.07533890504340        0.00093846930187
H           -2.89904477751015        2.59606397070823        0.00110199499931
H           -1.17248629519749        2.86208302930763        0.00133832143060
H           -0.43414674431344       -3.24872864819415        0.00128959789562
H            1.99562690388020       -2.75356827196467        0.00162845428055
H            1.19894213999751        2.65998375663875        0.00137559896174
H            3.74778828800407        1.97058533811335        0.00176098648510
H            3.95665728140421       -0.66811958961000        0.00186672388182
H           -3.11214469702339       -1.98002262639063        0.00090223053023
