21
 energy: -33.402911838665 gnorm: 0.000323789213 xtb: 6.6.1 (8d0f1dd)
N            1.84023811307855        2.47921754808087       -0.00091236423147
C            0.95269479102037        1.46314584151383       -0.00152162010888
C           -0.45558617672358        1.79754970315880       -0.00150162121033
C           -1.38520263815271        0.81949948689720       -0.00176370388356
C           -1.01061633694350       -0.62055058458023       -0.00200792599627
C            0.37061637672560       -0.93174038876889       -0.00198163592517
C            1.32738711324518        0.13383777166602       -0.00171382420482
C            2.63375881983378       -0.48457233979706       -0.00183389293860
C            2.46257071493597       -1.83750738498964       -0.00216166228185
C            1.06984535966225       -2.12869292820059       -0.00227582979146
N           -2.06485674048981       -1.38050922160660       -0.00218587255283
C           -3.16386419403902       -0.51972016167355       -0.00210535542198
C           -2.82507807407580        0.79134866951108       -0.00184931749687
H            2.82574633193208        2.28857766844945       -0.00216891788280
H            1.52797388738165        3.43371792256910       -0.00242614975270
H           -0.72945446585253        2.84507294760838       -0.00127466944580
H            3.57384705904061        0.03837837453647       -0.00165341328798
H            3.24200269554662       -2.57727191991479       -0.00232194153528
H            0.63178817859089       -3.10908911666160       -0.00257941568336
H           -4.14815516792442       -0.95326922682939       -0.00224246052076
H           -3.47746874269220        1.64183233703109       -0.00173363244722
