28
 energy: -48.287069869902 gnorm: 0.000436767688 xtb: 6.6.1 (8d0f1dd)
N            4.49536209266137       -1.79034817948744        0.08711207566879
C            3.54786653092587       -1.13281433729765        0.05542993864993
C            2.43920408463553       -0.30409646404263        0.02348061528405
C            2.48535662741120        1.12711676534240        0.01314742279901
N            3.61654049582649        1.85912039949467       -0.01267926471131
N            1.27250649167611        1.69929448107567       -0.00734053955099
C            0.39859129175029        0.67049654862773       -0.01594007254250
C            1.07227421766454       -0.62874256000939        0.00677609136788
C            0.34430353034845       -1.80822848999792       -0.01866376485685
C           -1.05139841376451       -1.78292613928752       -0.05313231515059
N           -1.77267677980716       -2.97231891312106       -0.08636888430304
C           -1.70934589644997       -0.54151971287465       -0.01428108656608
C           -0.97368089455143        0.67022256589583       -0.02819074272168
C           -1.91196489334319        1.76813508827978       -0.01934115465788
N           -1.48473196723469        3.03209097796678       -0.04034223910314
C           -3.19428116942129        1.23332415737891        0.02843321725427
C           -3.08887486105138       -0.16821023708529        0.05674029524724
N           -4.12987118903186       -1.03167205819619        0.13703987195919
H            3.55180187842076        2.85413725899621        0.10403114186319
H            4.49877943304945        1.40034833359160        0.12991268217154
H            0.86007566496369       -2.75899983597618       -0.03298654099584
H           -2.57480986111143       -2.96021659024824       -0.69984011061576
H           -1.19191569327702       -3.78608197483603       -0.23589747112432
H           -0.48256593529126        3.16400912904672       -0.04458300882484
H           -2.11335777164956        3.81492428333346       -0.02171519647659
H           -4.11517820009678        1.78510259413873        0.06386772215225
H           -3.93613198684203       -1.95288948053008        0.49589343234336
H           -5.03251629741012       -0.64565064277828        0.36408186794063
