25
 energy: -45.120827899373 gnorm: 0.000746298278 xtb: 6.6.1 (8d0f1dd)
N           -4.58696283223064       -1.11098219170295        0.05213476491626
C           -3.47604188354707       -0.81060327041570        0.02142020938243
C           -2.13860813892003       -0.42601482729110       -0.01087872527899
C           -1.67391151993446        0.91239947403289        0.03873850470592
N           -2.46834599889215        1.99117345041986        0.13507785088145
C           -0.24199425056828        0.90776016020642       -0.01688350027199
C            0.70843745216677        1.94210884360300       -0.04341232744235
N            0.32113860609008        3.26938564731280       -0.08700295898420
C            2.07402634995537        1.61737472771095        0.01303871661419
C            2.47525229646502        0.29910339733022        0.03459096669504
C            1.49103250835284       -0.79542404691503       -0.00995312761269
C            0.15629106933172       -0.45491942071946       -0.03373573780746
C           -1.01195589149047       -1.28183321354723       -0.04754110519267
N           -0.94834278919472       -2.60551043932274       -0.07407870685411
N            2.14770011014136       -1.96004183115492       -0.00441333806874
C            3.43857201074957       -1.57459291527222        0.03777591526676
N            3.69712017218189       -0.27282036991472        0.06221771374539
H           -3.45355754946894        1.83850090584799        0.28835211970293
H           -2.07534632896777        2.85787614892906        0.46332013930812
H           -0.47480795525732        3.47723226037147       -0.67114465385550
H            1.08527087172819        3.91586477502471       -0.22005768382448
H            2.80979096721514        2.40831245356317        0.01473976337603
H           -1.77273651096408       -3.18218528173499       -0.07885378415117
H           -0.02369837041036       -3.01662567998865       -0.07029918096963
H            4.23011846516821       -2.30307073787319        0.05067642621960
