23
 energy: -42.447624492395 gnorm: 0.000743937610 xtb: 6.6.1 (8d0f1dd)
N            4.31202632668435        0.13925352597785        0.00023611684456
C            3.25321607381690        0.58525558590410       -0.00016864037880
C            1.97350007878256        1.14372880955914        0.00012534350316
C            1.64400402579307        2.47339532304287        0.00008675518488
C            0.21563640886262        2.62535931134540        0.00018641780971
C           -0.35866104969073        1.38538877971932        0.00038271081053
C            0.72286002043135        0.39383521320496        0.00039328989800
C            0.48615974379376       -0.94742067514942        0.00057799367480
C            1.52137333662456       -1.90711654004935        0.00071856739202
N            2.28704333070976       -2.76165387846410        0.00005383797699
C           -0.88801278342483       -1.45515966730368        0.00074518766359
N           -1.07932459490348       -2.78171008401275        0.00093010669113
C           -1.91088194364762       -0.52895851963846        0.00072218594454
C           -1.68436565560093        0.88788171909365        0.00054458171411
C           -2.94704131799632        1.46068081477648        0.00056041795690
N           -3.93210637320858        0.51275934964427        0.00075294245859
C           -3.34908556259868       -0.65480594934177        0.00083722228276
H            2.34396603799427        3.28941464107197       -0.00013309983300
H           -0.29437393155737        3.56973333147129        0.00009636456723
H           -2.01239393666620       -3.15493011104244        0.00103666708550
H           -0.29547844496639       -3.41432483529478        0.00093147659109
H           -3.20839346507579        2.50211250636187        0.00044660972177
H           -3.92630061995623       -1.56205561967645        0.00096442313993
