22
 energy: -42.729693932038 gnorm: 0.000819185690 xtb: 6.6.1 (8d0f1dd)
N            5.35074699286167        0.69801581468829        0.00249684299620
C            4.29149599687098        0.25228642808134       -0.00201427043314
C            3.02287824725463       -0.32380777902606       -0.00030650979999
C            2.74804045091354       -1.74612364357275       -0.00000236585897
N            1.47781581292810       -2.04086749022451        0.00018339396311
C            0.81843021428546       -0.84188208078968        0.00014245638763
C            1.77763421198726        0.28262330679831        0.00016504780448
N            1.42184718712990        1.57933885275416        0.00012050253871
C            0.15208154009149        1.85766407357152        0.00021805595415
C           -0.86177163880739        0.86806833663322        0.00016361087788
C           -0.50776886617332       -0.52302080276045        0.00010772898848
C           -1.72810508207954       -1.30628683531603       -0.00002419166766
C           -2.77594921702179       -0.43898688475512        0.00000508196482
C           -4.14960169596984       -0.71165208186128        0.00002930057522
N           -5.28867058363164       -0.85599865086644       -0.00034989339651
C           -2.25842623502955        0.94172430123609        0.00013656877380
N           -3.04521946477148        2.01239693571887        0.00018483523648
H            3.49645730128025       -2.51927049919720       -0.00032152648148
H           -0.10002701159170        2.91100936866920        0.00026650855181
H           -1.76477913689720       -2.37890718736795       -0.00013640158881
H           -2.65295280759554        2.93931336204496        0.00025837052242
H           -4.04772889993420        1.90537077004155        0.00014344239133
