22
 energy: -37.936499322846 gnorm: 0.000762259439 xtb: 6.6.1 (8d0f1dd)
N            4.75798511366435        0.39527192426827        0.00330383590121
C            3.65797010905616        0.06133769527553       -0.00063612671227
C            2.29938810617536       -0.26356804249829        0.00055101950505
C            1.70902045153483       -1.49146281927767        0.00055227118194
C            0.27317942024041       -1.30512543414778        0.00018833521122
C           -0.73606659656018       -2.23773017905604       -0.00023588800543
C           -2.08190041269846       -1.81784876206764       -0.00072319569206
C           -2.37575109500557       -0.48128553768579       -0.00082465869151
C           -1.32548213634176        0.55432856915726       -0.00037970833676
C            0.01477107059941        0.10155765260142        0.00021295050521
C            1.24221863275905        0.76134337283286        0.00069229436412
N            1.48912656909453        2.07292826519287        0.00064082940231
C           -1.99984695826268        1.74547887954512       -0.00069881342073
C           -3.39021114384389        1.39509527742957       -0.00123600227691
N           -3.61373597499866        0.10690027904626       -0.00131144595710
H            2.21004612173232       -2.44188495311884        0.00048591199941
H           -0.50655406108857       -3.29347024869588       -0.00023659205368
H           -2.87856334213563       -2.54539779355835       -0.00107085945318
H            2.43590015042411        2.41513152569364        0.00084372514865
H            0.72437478295964        2.72575714521990        0.00034935473114
H           -1.61852802268991        2.74952049931199       -0.00058500684795
H           -4.21073481031485        2.09229926723157       -0.00156058290273
