25
 energy: -45.913655294376 gnorm: 0.000736779736 xtb: 6.6.1 (8d0f1dd)
N           -3.95177160997181       -1.64179096066416        0.00369492336172
C           -2.79850415646592       -1.70672416211906        0.00253606549360
C           -1.41426312186404       -1.70396825241340        0.00119165123383
C           -0.56698943621526       -0.59213041800554       -0.00067082233051
C            0.78479780115409       -1.17131355367937       -0.00168765835913
C            1.90921277101037       -0.37377883587642       -0.00384659041660
C            3.20216515925519       -0.92944027125517       -0.00178320695899
N            4.28311705938721       -1.31683662956253        0.00095088495559
C            1.77694562559765        1.05966439859563       -0.00499892715615
N            2.89682994755919        1.81328380854651       -0.01615596386759
C            0.49740230684945        1.60265874133604       -0.00180335701444
C           -0.67859018399243        0.79788693743826       -0.00030665922554
C           -1.79779000986211        1.68729118651139        0.00181949751840
N           -3.08613570594972        1.36920712321562        0.00230112683864
C           -1.28699825554468        3.02628156444404        0.00262042077057
C            0.07247385467832        2.97972708009045        0.00045732182157
N            0.72842142686467       -2.52978745092796       -0.00006530075714
C           -0.54463744763836       -2.84182968309354        0.00134903106130
H            2.83914190618288        2.81418078781252        0.00856056738298
H            3.79997859104860        1.37166031511776        0.00426908213715
H           -3.78075031771084        2.09809000523320        0.00339365052587
H           -3.39846058406135        0.40477256241776        0.00202560053417
H           -1.90264569082796        3.90617284984730        0.00487947306526
H            0.72675020985774        3.83294080026400        0.00047611376860
H           -0.86198454394090       -3.86964026297319        0.00245361621664
