30
 energy: -52.527831418113 gnorm: 0.000619232317 xtb: 6.6.1 (8d0f1dd)
N            3.76570963112946        2.07393065199528        0.09170024280286
C            3.04299907945118        1.16933073032536        0.05378222666923
C            2.19897924370060        0.07874585362204        0.01597434777992
C            0.78713578698862        0.04952423061302        0.01666186792626
C            0.40131523672418       -1.36951779444112       -0.01895176812588
C           -0.95102025921311       -1.74693535086036        0.00935407641388
C           -1.30213334864501       -3.10334357755023        0.04611075470764
N           -1.63259079506046       -4.20546386812099        0.09125459816109
C           -1.96758068816128       -0.76934076556610        0.04983249095297
N           -3.29804984603641       -1.15120957936214        0.08885333950397
C           -1.59204579969818        0.57532560083720        0.00800872352494
C           -0.22532274122088        0.99001588004020        0.03079729047073
C           -0.23044286767035        2.44295139262154        0.03595605189575
N            0.84168700960639        3.23371285702576        0.07262344566149
C           -1.55674115527386        2.87444009603926       -0.02058436930912
C           -2.39514453333074        1.76029442669601       -0.06589052234213
N           -3.74581653873586        1.78755122616844       -0.16425867317043
C            1.55445060549457       -2.13940352469397       -0.04141732289569
C            2.65702406703777       -1.27371989238763       -0.01928803411473
N            3.95718025946942       -1.63308655104357       -0.05489270016833
H           -3.43053086985345       -2.14722373643193        0.20780867760349
H           -3.88673303968786       -0.60084264166720        0.69591691129994
H            1.77928660739393        2.85651577138596        0.08718416032172
H            0.72402220119847        4.23220857543420        0.06871335188887
H           -1.87792136670779        3.89896651700425       -0.05362347417208
H           -4.16851263608202        2.67583485443882       -0.38411214003687
H           -4.19552811891148        0.97445229254129       -0.55444304234005
H            1.60255930737327       -3.21167739362113       -0.06768133779729
H            4.66978052241182       -0.93349356230318        0.05881610076240
H            4.21108659181007       -2.60095488233943        0.02648418902498
