24
 energy: -46.187934590203 gnorm: 0.000672562196 xtb: 6.6.1 (8d0f1dd)
N           -4.18153789689339        1.23393533386149        0.00339141987633
C           -3.19495615677811        0.64139209117472        0.00353605002950
C           -2.04228131376075       -0.13346507953599        0.00227511654589
C           -0.71438158445163        0.22781344872419        0.00099562067157
C            0.03169698390051       -1.05418758889398        0.00054356712229
C            1.40996547209917       -1.08126396845995       -0.00045207499605
C            2.12151792310132       -2.29447328365235        0.00022456002618
N            2.77163819335598       -3.24150002845696       -0.00243003611284
C            2.16095364354870        0.15191994918338       -0.00132454842229
N            3.49785689346208        0.09446125630622       -0.00232263882484
C            1.45772395917367        1.35749019699094       -0.00096759854374
C            0.02669449274477        1.41527370060162        0.00021319610620
C           -0.28763551766445        2.78060564618838        0.00030758446447
N            0.82323996000956        3.54153279550958       -0.00070374454036
C            1.86193993890659        2.72098526905063       -0.00146051605684
N           -0.81143390289840       -2.10813847681628        0.00147463201168
C           -2.03442605472145       -1.60251285289189        0.00241413935429
N           -3.12977294830336       -2.35414805450031        0.00347312239578
H            4.04149163739504        0.93980561937231       -0.00292127593408
H            3.96749022746125       -0.79716049171529       -0.00253274860375
H           -1.26255577894090        3.23200648445306        0.00106249367628
H            2.86288718109737        3.11522322716460       -0.00231513466305
H           -4.04240599814175       -1.93061148490828        0.00420064683428
H           -3.03302196450179       -3.35564663934988        0.00352632748308
