27
 energy: -44.546692095884 gnorm: 0.000490584997 xtb: 6.6.1 (8d0f1dd)
N           -3.04813316165026        2.70553443694407       -0.05454175806021
C           -2.57254243040581        1.65446147661329       -0.03552359238354
C           -2.04711706581572        0.37149648978359       -0.00683159480688
C           -0.69277102716586       -0.01255362883098       -0.02595140174987
C           -0.65098626477511       -1.48819012208127        0.03301186665701
C            0.57373084352477       -2.16311642773673        0.00638481325291
C            1.76501288025985       -1.46447697982725       -0.05227884377224
N            2.97967443737101       -2.12881615408541       -0.09856554075950
C            1.73543212056957       -0.04259690060921       -0.03059553373294
C            0.50009306646581        0.67136413266039       -0.06357507444116
C            0.80766995413903        2.07871129615813       -0.07209907346624
C            2.15871637958952        2.22131897582152       -0.01219348776357
C            2.75826057900190        0.91632475513304        0.04430861505018
N            4.09202535773443        0.69644860847401        0.16201027298749
C           -1.95582197413813       -1.94281434490417        0.07688819675334
C           -2.81802364739921       -0.82079808996271        0.05488223004256
N           -4.16330206224878       -0.85788967604580        0.07056849121064
H            0.58537478113023       -3.24459249218547        0.00346687700878
H            2.89882372615057       -3.12337976276907       -0.25659017343444
H            3.68314059532921       -1.69492990265459       -0.67743807817268
H            0.07110777376765        2.85933882240471       -0.11059999199810
H            2.71621100164592        3.13989627359092        0.01013890076672
H            4.38574044861153       -0.18536727399850        0.55195540031705
H            4.66366363164084        1.49331820477352        0.39572117579015
H           -2.28120096787953       -2.96550403041103        0.12276492876772
H           -4.68292170301207        0.00210158144509        0.10600724604748
H           -4.65004051014166       -1.72991134690033        0.17503767128956
