23
 energy: -41.679834561218 gnorm: 0.000883549853 xtb: 6.6.1 (8d0f1dd)
N            1.33722828999533       -0.05964368758763       -0.29687070576471
C            0.18232944372335       -0.02947081662184       -0.26309864517214
C           -1.19548789493096       -0.02604695039608       -0.17476684960475
C           -1.98584528956478       -0.62598806963030        0.80303661990752
C           -3.37364653239414       -0.31581987881318        0.41980515820887
C           -4.44499914617398       -0.76055872891924        1.17769429461123
C           -4.21810700150012       -1.51494648587853        2.32406431396905
C           -2.91756941588538       -1.81855312968359        2.70305552212856
C           -1.78986975927993       -1.38177131076876        1.95365976878959
C           -0.65791030143631       -1.88816034401104        2.65658648230371
N            0.62661112499985       -1.75776087609357        2.36856931652562
N           -1.05103334348587       -2.59499897695438        3.77187298949265
C           -2.36129674852823       -2.55476311698298        3.79901415080411
N           -3.40542175966228        0.41914020870905       -0.71006782996584
C           -2.13863614516368        0.60072244251753       -1.07598251887599
N           -1.80609365051158        1.29662501675522       -2.16984695370455
H           -5.44812478284739       -0.51470519306763        0.86736223583580
H           -5.05131914120030       -1.86321510355754        2.91718282401221
H            1.30038650104143       -2.18621274961807        2.98261989779438
H            0.93761444927454       -1.24304025587345        1.55460240787117
H           -2.90470002017622       -3.04353717432590        4.58868924451498
H           -2.53915077611501        1.69224229525811       -2.73109142030663
H           -0.84384810017823        1.42062288554399       -2.42900030337449
