25
 energy: -45.113637967494 gnorm: 0.000678813825 xtb: 6.6.1 (8d0f1dd)
N           -2.92772113295717        2.94527854997281       -0.01023794652114
C           -2.08617254808830        2.16187183047977       -0.00595595766452
C           -0.99782731087683        1.27385506152201        0.00013701672731
C            0.32312367107523        1.81686540103016        0.00353142734611
N            0.48942337583131        3.15421414910257       -0.00047580069799
C            1.40494457055232        0.92941520237855        0.00683694887344
C            1.23121936602745       -0.48950739429861        0.01043028307919
C           -0.04781177633585       -1.04959094998201        0.01303415346474
C           -1.19420697276592       -0.10160056104656        0.00439624761399
N           -2.35710448906959       -0.75972267021484        0.00660544790634
C           -2.03144360134118       -2.06353193048775        0.01831823630652
N           -2.98887565865167       -3.00148233976811        0.01202228257682
C           -0.62245591785182       -2.29697273513202        0.02215564719589
C            2.54762752724032       -1.01158942773316        0.00636191389994
N            2.92603329594199       -2.29755634932052        0.02385394612622
N            3.47891800172315       -0.01596443976727        0.00300740766772
C            2.81080729091866        1.12279446566048        0.00366271821104
H           -0.31466825561472        3.75866976111172        0.00296713383848
H            1.40977706728661        3.55316929991331        0.01127818758295
H           -3.94738818660197       -2.70313967775391        0.05206260866453
H           -2.76232422353665       -3.97607336596859        0.08737121562818
H           -0.15789762273734       -3.26407781555460        0.03542013056267
H            3.90516553283846       -2.50913623859668       -0.05390149223986
H            2.24207340392926       -3.02523235938646       -0.07257646288146
H            3.34871162036388        2.05494530543885       -0.00092165216726
