23
 energy: -37.651482224957 gnorm: 0.000447035664 xtb: 6.6.1 (8d0f1dd)
N           -1.81301766131963       -3.63261408565823        0.00151769977026
C           -1.11218206723330       -2.72237130688380        0.00108824105969
C           -0.27460436220454       -1.59192852262266        0.00048605347552
C            1.08670950385228       -1.70676331005430        0.00029528805609
C            1.89374837435975       -0.53729288573080       -0.00013021243688
C            1.30948830485732        0.78729663931157       -0.00035146149712
C           -0.04612597869409        0.93614942329461       -0.00026178700337
C           -0.88396224084332       -0.28522486516995        0.00021342065162
C           -2.17861188242871        0.10314693681181        0.00045727674923
C           -2.20767433631623        1.57298079549668        0.00042491494285
N           -3.36359846333954        2.26562556371937       -0.00194624308457
C           -0.92373672704096        2.05230853026492       -0.00013581496971
C            2.40856818866599        1.73036303932297       -0.00074726060861
C            3.56618550482977        1.02152845291057       -0.00081792661484
C            3.26130436704642       -0.38210540151550       -0.00045994271638
H            1.55770407094034       -2.67938132811446        0.00047974940882
H           -3.05388123522738       -0.52017595860226        0.00063821729202
H           -4.24432072546928        1.78452033696051        0.00966017999091
H           -3.35618055547781        3.26942946190279        0.00699662084578
H           -0.62358626170190        3.08153642411799       -0.00038618161326
H            2.29740534102895        2.79818809061661       -0.00095904625726
H            4.56378709073923        1.42167202867784       -0.00110458241372
H            3.99448260707662       -1.16905935855627       -0.00047883632709
