35
 energy: -67.925068386907 gnorm: 0.000412906764 xtb: 6.6.1 (8d0f1dd)
N           -6.08972447940056        0.03319807097398       -0.47053108463882
C           -4.95152211457564        0.02054930408616       -0.30706561546517
C           -3.55225472905307        0.00795930606632       -0.11696949031071
C           -2.95418360519594       -1.26748309956244       -0.14612181214721
N           -3.77553826366947       -2.31780260474304       -0.38158220529469
H           -4.76493497770097       -2.17424711483683       -0.49058665879350
H           -3.42033754928047       -3.25849979142941       -0.37488886787282
C           -1.58081178191892       -1.55832280001757        0.07934406820369
C           -1.34793646237736       -2.94909568615491        0.23210969218609
N           -1.25407699040231       -4.08572790060377        0.37324131474153
C           -0.43757464613637       -0.73339047314566        0.11262142207864
C            0.79584160112414       -1.39639657169844        0.20148136296885
C            1.99319763360155       -0.72240381413136        0.10823313590009
C            1.98897365049141        0.72619912894030       -0.07457267566968
C            0.78402315048327        1.40277533816064       -0.08575861014923
C           -0.43806268275200        0.73797563832675        0.03752662449992
C           -1.58444811358296        1.56165279390028        0.16339115808227
C           -1.32093186096340        2.94175152095147        0.35283311517536
N           -1.19011800033519        4.06896292423907        0.53497020385938
C           -2.96870648962857        1.27441102046567        0.12392680907224
N           -3.82661289675696        2.30934484526594        0.28875144785366
H           -3.48134998512743        3.24718392896643        0.40116258650018
H           -4.81890352399054        2.16363843924384        0.21632970632268
H            0.79715662943432        2.47844850697859       -0.18181811925488
C            3.31808879156828        1.15117256551253       -0.18508873399033
C            3.79802650195428        2.44305357754377       -0.37806526304786
N            4.23822518822533        3.49400538894160       -0.53986579569643
C            4.15231957732545       -0.00675939151869       -0.06665058784330
N            5.48559026767562       -0.00197501062740       -0.11776643588192
H            5.98479270799679        0.86284606269590       -0.24551612912692
H            5.99930228517981       -0.86266319415209       -0.02420570707050
C            3.33101748105980       -1.15420642756727        0.11303883116281
C            3.81338589589680       -2.45233700087765        0.25582834047263
N            4.25336865553925       -3.50951784704025        0.36929120610374
H            0.81369449569210       -2.47186927675183        0.29827423646975
