27
 energy: -52.537515971541 gnorm: 0.000740534750 xtb: 6.6.1 (8d0f1dd)
N           -4.54674608793002       -2.03721714735799       -0.00485690338320
C           -3.77987618058590       -1.17972014285821       -0.00501788352179
C           -2.89878853717653       -0.10109283816960       -0.00569548534365
C           -1.50340475156636       -0.11960140290933       -0.00414570369570
C           -1.05030040239804        1.29163496997714       -0.00578748771258
N            0.23452694104957        1.61847241999419       -0.00474404445927
C            1.15129084457096        0.66989628463338       -0.00225244512674
C            2.47372132817437        1.18401864997954       -0.00089004485190
C            2.54770789716711        2.60267198975848       -0.00306320832130
N            2.68370606347235        3.74066559044622       -0.00213883174792
C            3.71063453662124        0.53399593244849        0.00161941403165
N            4.01264951646555       -0.74531004708082        0.00274529194408
C            3.17322691168120       -1.75336239850756        0.00220483734421
C            1.76926030314347       -1.80587408744843        0.00100538587115
C            1.28389628592791       -3.14039817119247        0.00119110259473
N            0.95179641420418       -4.23779655039776        0.00239367011855
C            0.80837210025332       -0.76961449866342       -0.00086840025699
C           -0.54752124873554       -1.11495135321157       -0.00177570541436
H           -0.83964159134357       -2.15635467233267       -0.00072039099064
H            3.67501403451308       -2.71761945847865        0.00304903162118
H            4.58584322223102        1.17765484636045        0.00260790832377
C           -2.16089505925702        2.10764135188056       -0.00827541919061
C           -3.30591119682401        1.27405852741780       -0.00824604773621
N           -4.57640830967776        1.68044726942174       -0.01028083848372
H           -5.32170501637237        1.00304958824491       -0.01006085879353
H           -4.80069699282973        2.66061599399878       -0.01201282546211
H           -2.16509739977846        3.17928655604681       -0.00990778255710
