24
 energy: -38.970404717490 gnorm: 0.000665017726 xtb: 6.6.1 (8d0f1dd)
N           -3.61613730736817       -1.75294070093631       -0.08397821545981
C           -2.90465420669709       -0.58569724054188       -0.07773175041412
N           -3.57793565401116        0.61371885737882       -0.07035640115134
C           -2.69459457793554        1.57574287620442        0.00638477480744
C           -1.35842256119567        1.05563450890322        0.05580430273440
C           -1.53011363482573       -0.39067993231531       -0.00447628452668
C           -0.39904096513837       -1.20474287991399        0.07918236668087
C            0.86352006701449       -0.65425684591237        0.11462279540843
C            1.97235150883935       -1.53648108486790        0.36699620263054
N            3.22190048671815       -1.41850894270781        0.12395200462658
C            3.90245374577062       -0.33960476679021       -0.30931327762478
C            3.55924326561723        0.97001639370794       -0.15011134845863
C            2.25930158877220        1.46548473513640        0.10999420525603
C            1.04730200845402        0.79990363034701        0.11661358489996
C           -0.12347286124387        1.61355934325798        0.15007496294949
H           -0.00471220737356        2.68787267399174        0.19586362634135
H            2.19613617342491        2.54489238035642        0.18640068586886
H            4.32704020660819        1.71458560694840       -0.31666921520927
H            4.88052371756987       -0.59175963638550       -0.70261519831444
H            1.70532191888664       -2.49033012989333        0.82038338009923
H           -0.50687138331117       -2.28054104642553        0.11672518138363
H           -2.99263138911962        2.60748378402115        0.02403420582500
H           -4.58404631346420       -1.65253797106091       -0.34370560073891
H           -3.14842509179123       -2.57434180540203       -0.42929517111377
