31
 energy: -59.429246106882 gnorm: 0.000573328114 xtb: 6.6.1 (8d0f1dd)
N           -5.57772441110844       -0.50076892157910       -0.47457576831348
C           -4.44029928423451       -0.49720929986421       -0.30153086886086
C           -3.04499052342651       -0.50724304536960       -0.10105496929551
C           -2.44101522309071       -1.78975615053925       -0.07196466460522
C           -1.09440730510427       -2.06325466032036        0.14582991764396
C            0.04941703313554       -1.26352430280769        0.17238867535460
N            1.16125768588829       -1.97463085582588        0.34439188510064
C            2.33748743374557       -1.37111092629760        0.27002819447801
C            2.47689398026864        0.06514859331541       -0.08374663095287
N            3.75044247124600        0.40543556846675       -0.22067639959592
C            4.45045339882989       -0.72405665879531        0.06029994014428
N            5.78415288290413       -0.69551084911907        0.03387371476221
H            6.32706934575852       -1.51726298016397        0.22823338743930
H            6.23741363526773        0.17403588246392       -0.18905746632606
C            3.62756704921074       -1.84648332909925        0.34945098694576
H            3.96133183103905       -2.83635203000161        0.58175067852538
C            1.31721534977190        0.81952791833568       -0.22554477843355
C            1.43050015523964        2.14330858624687       -0.70264396673786
N            1.57351309074736        3.16498071024804       -1.20555913079995
C            0.06378439369695        0.19995708903452        0.01097667372123
C           -1.05738149308136        1.02751733998551        0.20045689807916
C           -0.78088964832921        2.36605922349349        0.57777741555852
N           -0.67017739110087        3.42025182584885        1.02270917303337
C           -2.45125892837539        0.74991277746148        0.12979505316456
N           -3.29048708630962        1.80435844240438        0.25852300002137
H           -2.92742432305503        2.73489909559618        0.37604521264216
H           -4.28499749842798        1.67133498198563        0.19362522408432
H           -0.84980156088718       -3.11359911234824        0.25319554850333
N           -3.26012917310965       -2.86211640862511       -0.22087765310852
H           -2.87460649601520       -3.78844181322528       -0.22002375428379
H           -4.24518576329337       -2.74321507020518       -0.37971069018845
