25
 energy: -47.498176400617 gnorm: 0.000913025202 xtb: 6.6.1 (8d0f1dd)
N           -1.93765474629180       -3.18728803340081       -0.44967360076920
C           -1.87294541806821       -2.05984758469102       -0.23338974948303
C           -1.85942897945841       -0.67505508919478        0.03768812103971
C           -3.11091526329803       -0.02442382804605        0.00830132042497
N           -4.20859567803493       -0.78775934952747       -0.19729329482604
H           -5.11904092544395       -0.36665131681187       -0.23188978966863
H           -4.12016487049997       -1.78013332472389       -0.33704327427245
C           -3.31547246705820        1.35181371990715        0.22816893719631
C           -2.34833349152698        2.33570727443807        0.24759648031359
N           -1.07804386636979        2.27616767295330       -0.06295920599432
C           -0.23530717892851        1.27640616887960       -0.06549539709481
N            1.00798647436402        1.56281027829136       -0.44934137562359
C            1.95345107099491        0.66551242908638       -0.40097924953515
N            3.25460680103720        0.81976129147487       -0.55848487242915
C            3.82377419403931       -0.33185573497379       -0.12333073728549
N            5.15250392902073       -0.47945727198076       -0.18103724708620
H            5.69919522263927        0.26064770566805       -0.58439205004639
H            5.59736269313908       -1.30437182270839        0.17765785608688
C            2.89152347262138       -1.25514747851683        0.41443392017480
C            1.65961387410512       -0.69146046977065        0.17404087158285
N            0.41221250915172       -1.00562755010312        0.43351233180257
C           -0.55782222871274       -0.13966853534092        0.26168333403758
H            3.11095937635011       -2.19988389755312        0.86848358353941
H           -2.68330378883267        3.35202988813349        0.43343238266127
H           -4.34546540064259        1.67266048140727        0.30997863835365
