32
 energy: -59.962070541439 gnorm: 0.000963390169 xtb: 6.6.1 (8d0f1dd)
N           -4.26886461826630       -3.25214145211711       -0.54910221656052
C           -3.63390532271321       -2.30488982304740       -0.39389356721692
C           -2.88406905230290       -1.14783938661032       -0.20170822466231
C           -3.40778361710899        0.15154121966005       -0.05453248268881
N           -4.69802771385554        0.50154262877295       -0.08093395447058
H           -5.41106612193148       -0.19276226791609       -0.22647564377836
H           -4.96009160385228        1.46626017685183        0.03502090034924
C           -2.31866938723576        1.07703593894081        0.13427123288939
C           -2.52726839931232        2.44444672925645        0.31179225416534
N           -2.80279227241651        3.55255470894865        0.44838855165396
C           -1.13388255165257        0.35087024500066        0.08388281180970
C           -1.47402303046481       -1.05480931615211       -0.11114429921965
C           -0.48745211134456       -2.00444297168141       -0.09821170535483
C            0.87238298985669       -1.65573599482023        0.05820662946600
C            1.75350174867873       -2.71192565904057        0.26374633764184
C            3.11634819365364       -2.72075974860311        0.55186620948512
C            4.02199822644543       -1.69390214515642        0.48419699658145
C            3.81478192643937       -0.36858044197974        0.04695822608223
N            4.92871593678798        0.38297800218418       -0.13192621167064
H            4.86205209071388        1.32926912196605       -0.46620244050319
H            5.83802663036178       -0.03365786134548       -0.04719923868629
C            2.56104444252402        0.23879413212732       -0.17340274119100
C            2.65822078069549        1.51808455329657       -0.77560695761000
N            2.85033644878447        2.46535920228898       -1.39782503150474
C            1.23910657233202       -0.23810880542503        0.05004690657157
C            0.21796135305528        0.72139405195803        0.15736039027753
C            0.51211501716950        2.06867890616452        0.46461523199910
N            0.69817546622812        3.13714531817994        0.84054225856758
H            5.05011934055365       -1.93707956515292        0.72260417016886
H            3.52050935512249       -3.68444874521866        0.83432673181603
H            1.28526116987646       -3.68906220277697        0.26776020603609
H           -0.75238703262303       -3.05036823245143       -0.15709690194133
