24
 energy: -43.773928482251 gnorm: 0.000249426649 xtb: 6.6.1 (8d0f1dd)
N           -2.04157614604671       -3.15013242927545        0.39443934803107
C           -1.76838959220845       -2.03588472631095        0.32147287724889
C           -1.51842114641808       -0.64990959216976        0.23978682641241
C           -2.66694094575318        0.15574031409432       -0.19907062917445
N           -2.86313541909995        1.41234685804255        0.04963616476959
C           -1.95798240755092        2.25954314310893        0.56651325751461
N           -0.68281859431517        2.25046985027040        0.48443545818745
C            0.15147154722786        1.23425039859012        0.17685055800281
N            1.34989555514897        1.56066544933250       -0.20003393112558
C            2.30404975482927        0.61526220636677       -0.26178431553949
C            2.07169135429198       -0.76568551097780        0.19990865877427
C            3.34457498821641       -1.44569620906125        0.13621869612264
C            4.25557124633900       -0.55503632664318       -0.32445779102341
C            3.63144256269246        0.72825852236316       -0.56240581046689
H            4.14146696077993        1.61133154733713       -0.89484220443574
H            5.30065586125026       -0.74617081248505       -0.49192769716483
H            3.50067568083895       -2.47650072170419        0.39139883999471
C            0.83277364035757       -1.13157776116664        0.59589257649356
C           -0.23306724392753       -0.18410243220720        0.41343503075700
H            0.60481810305979       -2.12190270532639        0.96881791209501
H           -2.40151189659919        3.14766684346191        1.00648822134483
N           -3.62839663697516       -0.49258528946697       -0.88016894696860
H           -3.61234634278582       -1.49156137204023       -0.99484265048024
H           -4.44374567385244        0.02923410686723       -1.15296117527016
