37
 energy: -64.940468623994 gnorm: 0.000641181448 xtb: 6.6.1 (8d0f1dd)
N            4.24410729373477        2.85528798796537        1.56915243343465
C            3.54415486369182        2.09013631484476        1.06691558098372
C            2.67754242441677        1.14971954152638        0.48576195300839
C            3.27815707087473        0.00048451026914       -0.00040682977430
C            2.67760321873863       -1.14892081214387       -0.48628374534528
C            3.54429170773750       -2.08927716962433       -1.06739433432739
N            4.24392880536505       -2.85385785256846       -1.57106584117435
C            1.31474394123894       -1.55690380549727       -0.27864228602018
N            1.11897302520530       -2.89855094731431       -0.44336289626732
H            0.18266938051287       -3.24299405254613       -0.57557354560884
H            1.86829848621700       -3.42252710853920       -0.86775204991059
C            0.24438072628521       -0.74072547346189        0.09874548725708
C           -0.98244184446469       -1.34236656367698        0.50990575656812
N           -1.03618347707996       -2.60948247713321        1.06045727117943
H           -1.87854723024218       -2.77071144644183        1.59347060043727
H           -0.19506265342818       -2.92211435095923        1.52271241067384
C           -2.17201523805830       -0.66169361700555        0.29857803462688
C           -2.17238716621065        0.66124288112943       -0.29618304370592
C           -3.53549144951675        0.99701257095630       -0.42146329555840
N           -4.32705671206827       -0.00051562090775        0.00189457833576
C           -3.53493574169505       -0.99783602089531        0.42473886034499
N           -4.08109333858070       -2.16362689367955        0.94010731881368
H           -5.08959306792748       -2.14540048808690        0.85583649127649
H           -3.69331824541411       -3.01313048035501        0.55083074784007
N           -4.08228163731390        2.16265846693249       -0.93648400767458
H           -5.09072247780857        2.14417832423409       -0.85156861623899
H           -3.69446783937931        3.01226312522440       -0.54746770602316
C           -0.98314674228519        1.34221383750999       -0.50835517323252
N           -1.03757586991346        2.60928688109900       -1.05892487271814
H           -1.88034969892412        2.77030216476735       -1.59135400549177
H           -0.19684773388441        2.92210097824408       -1.52176995801071
C            0.24412283448953        0.74090931176519       -0.09798368165152
C            1.31447152388558        1.55737630701646        0.27875082508094
N            1.11849266467901        2.89900354100395        0.44345406615611
H            1.86792843713660        3.42315355703253        0.86743892157646
H            0.18218747499272        3.24323612728236        0.57620797242195
H            4.36356716789277        0.00060036333322       -0.00062083798208
