29
 energy: -56.782605057166 gnorm: 0.000533701804 xtb: 6.6.1 (8d0f1dd)
N            5.82722552342277        0.95802671695325        0.00039790192213
C            4.70756707993163        0.71032242629045       -0.00137817090001
C            3.31955903239064        0.42329406443361       -0.00029099700496
C            2.99065013576434       -0.92552353661848        0.00001817844594
C            1.74341677875399       -1.54681229560285        0.00026786772676
C            1.87719196345781       -2.96526357992414        0.00010147110946
N            2.07381447848642       -4.09404845429139        0.00126733749420
C            0.42940043013955       -1.02553522902658        0.00022132196042
C           -0.61501547465941       -1.95674929325574        0.00043867379716
C           -1.93317959429930       -1.55534300542136        0.00040163457328
C           -2.26813631022229       -0.12089015689607        0.00013380046061
C           -3.67099651726435       -0.08736021653759        0.00013747096073
C           -4.51796985408631        1.02300759927828       -0.00023079510579
N           -5.23174791524390        1.92252651386036        0.00006675222242
C           -4.06494868792564       -1.44531270774489        0.00045306552620
N           -3.04289428280838       -2.30100505400435        0.00059106575763
H           -5.07727246584275       -1.80866443079629        0.00054938192868
C           -1.24790004448142        0.81781277871871       -0.00005591240787
C           -1.59228321617432        2.18782610457181        0.00011194095814
N           -1.86616024608155        3.30242383869986       -0.00103653215269
C            0.12079130456583        0.41719208857993       -0.00006797523002
C            1.03917914459005        1.45706846035581       -0.00033841424525
C            2.44158196180922        1.53369363996030       -0.00046360505819
N            2.98160872126722        2.77301738736472       -0.00082546485343
H            2.39212394422232        3.58679005685211       -0.00094066064750
H            3.97968743795519        2.89902664704774       -0.00090807707545
H            0.57684586937614        2.44036065541997       -0.00053826065593
H           -0.39588516132608       -3.01349489491058        0.00064235507438
H            3.83877180168257       -1.60227796175658       -0.00000875368104
