31
 energy: -54.638052680276 gnorm: 0.000773623642 xtb: 6.6.1 (8d0f1dd)
N            6.26886103862331        0.77154221247974        0.50833680738593
C            5.13457664767156        0.62876637536549        0.38953179302100
C            3.75505652444211        0.44686299019614        0.24271250339473
C            2.85118708075592        1.40210902139608       -0.19619392888678
C            1.56777273554386        0.80642743294443       -0.19459587760431
C            1.72666465842861       -0.55871829466748        0.25452224691019
C            3.06367530611377       -0.76847992985158        0.51583485213611
H            3.54209609768104       -1.66893403301048        0.85651150575748
C            0.61339050216502       -1.44224327723653        0.22774464834851
N            0.83789666617457       -2.79894008697288        0.42309490750784
H            0.06847790202255       -3.31992777654880        0.81634658962489
H            1.71772829170115       -2.99714436560764        0.87399020982526
C           -0.63243826120187       -0.93294858059387       -0.06365693339124
C           -1.74196755591767       -1.82229363771776       -0.40028895069934
N           -2.97517728853704       -1.74440562612793        0.01492781928995
C           -3.62154386652206       -0.70496573160606        0.50408341831836
C           -3.30251684029867        0.62836685419237        0.31839606573945
C           -4.28542901843565        1.58686499287773        0.64139292211272
N           -5.08108018781338        2.37790614854864        0.88736352757508
C           -2.05529163630009        1.13827804405807       -0.13569807365185
C           -0.84458315324878        0.50203174800871       -0.26580274395434
C            0.32320873549665        1.32004759840558       -0.52531089379462
N            0.20762483949892        2.59317296672236       -0.96887676608975
H            1.04900507321891        3.12502880260141       -1.10047161770669
H           -0.63367681832425        2.92636384013542       -1.40286832352299
H           -2.06223467177385        2.21510114965594       -0.25533707072336
H           -4.55588528237859       -0.95478547923624        0.99461024916394
N           -1.45454939955482       -2.87471268642800       -1.18401906563227
H           -0.50757007890197       -3.05490673563312       -1.46888069394346
H           -2.19712663225549       -3.49554937017055       -1.45759223820077
H            3.09950823612575        2.41296299122050       -0.46428518521044
