25
 energy: -47.498255934738 gnorm: 0.000585524634 xtb: 6.6.1 (8d0f1dd)
N           -1.33991086576294       -3.53850201567477       -0.84517598092328
C           -1.26457231732872       -2.43445356531594       -0.53530864882221
C           -1.25465844747579       -1.07659830306361       -0.14172810402137
C           -2.54682088532334       -0.58812642040432        0.27332688857221
N           -3.45884284487361       -1.52342341675840        0.63763862682735
H           -3.24948164984455       -2.50274562654157        0.54901215919431
H           -4.40904642347670       -1.25234760381701        0.81448264367996
C           -2.92991801729229        0.73516358332119        0.24681762283223
C           -2.12671473660370        1.83786562628951       -0.13978715303839
N           -0.82153160903571        1.93860737125436       -0.10125260031324
C            0.12817624819126        1.04345796799388        0.10832517755127
N            1.29935863099361        1.54684879304944        0.43192915964646
C            2.38971010938494        0.83469482239816        0.30325387319314
N            3.62991974641293        1.07757840191337        0.68891647358640
C            4.32001508602823       -0.00102234582624        0.25998158212080
N            3.63264847772196       -0.98778584149384       -0.29112939661684
C            2.36471345259316       -0.53638890253194       -0.29504110127585
C            1.15259104755854       -1.15416286096948       -0.40742354813981
C           -0.02840036373259       -0.41691603863869       -0.14306894817597
H            1.09016650112492       -2.21813727216887       -0.58881357853518
H            5.38593865979789       -0.05849289478490        0.38800066043568
N           -2.75617122919336        2.96850856755373       -0.53131990982912
H           -3.75287960250748        3.06509350946380       -0.47045430314412
H           -2.18586094648705        3.78014674538229       -0.69325376426762
H           -3.96992289286953        0.94578237247122        0.46250524886302
