24
 energy: -44.577143025003 gnorm: 0.000518249089 xtb: 6.6.1 (8d0f1dd)
N           -5.49351310021959       -0.63367039337291        0.00228841451039
C           -4.34955512954129       -0.57810925653269        0.00220321388867
C           -2.93038556107291       -0.51722019215139        0.00187538423903
C           -2.26187649395855       -1.74151422322783        0.00294830892010
C           -0.89928893332716       -1.96839631563990        0.00280480328832
C            0.20952390569932       -1.11200384664074        0.00152367754085
C            1.45412449495409       -1.75597393562010        0.00178022158643
C            2.62296306314384       -1.02926591688484        0.00047538396050
C            2.57300836424009        0.44584368951541       -0.00114129085504
N            3.83040813705411        0.89441287079974       -0.00221859996129
C            4.56512196554572       -0.22571276384720       -0.00132043255471
N            3.91101641523447       -1.39172486691137        0.00031671299279
H            5.63933399972554       -0.18752043510103       -0.00183713590915
C            1.35589989964992        1.09637500171747       -0.00131083432757
C            0.16264823496856        0.37023880775189        0.00001111798296
C           -1.03302440087293        1.12823962330038       -0.00028146543016
C           -0.89561694501655        2.54854833810501       -0.00208699918481
N           -0.88072829607161        3.69389226238876       -0.00249447292011
C           -2.37533121281146        0.76147497018407        0.00046985651775
H           -3.08434841954459        1.58244608966514       -0.00018706301697
H            1.33580638224277        2.17597315592421       -0.00250129028028
H            1.49940170042145       -2.83493929658642        0.00300255328396
H           -0.63047541812937       -3.01896790645181        0.00393589342358
H           -2.89509222941387       -2.62008334028387        0.00406106200477
