24
 energy: -44.571500028945 gnorm: 0.000513180635 xtb: 6.6.1 (8d0f1dd)
N            1.37651986563681        3.65830351935184        0.00246073600496
C            1.58630937231956        2.53178316559575        0.00166140703367
C            1.93919789692837        1.15220447932414        0.00126197026505
C            3.31149087156606        0.95875732353200        0.00193543431695
C            4.01094486218587       -0.24954622941103        0.00117111867188
C            3.47254611430580       -1.52300765302195       -0.00001526549453
N            2.21524062620890       -1.92864615963900        0.00045903877355
C            1.08583035558253       -1.26401727488216        0.00083184789960
C           -0.04515476707691       -2.11946766203504        0.00143223688025
C           -1.31016772756914       -1.60861455169132        0.00087394443000
N           -2.50230558094534       -2.26327602208700        0.00097929841848
C           -3.42799438859162       -1.33380221004156        0.00007643315888
C           -2.90349007508692        0.00217085339336       -0.00051087130665
C           -3.64390375219865        1.18321247551626       -0.00123209773707
N           -4.25488057864288        2.15638101758603       -0.00237311620892
C           -1.52011356379634       -0.15494354716954       -0.00011857033800
C           -0.42688486505140        0.70554960723274       -0.00025046479309
C            0.86690552114082        0.21230520613375        0.00035590996518
H           -0.59905501120650        1.77339244804339       -0.00072279855653
H           -4.47206326775908       -1.59366701300049        0.00005910483003
H            0.13352433247728       -3.18280353760151        0.00194589411374
H            4.17075391475717       -2.35498272009918       -0.00102840896070
H            5.09047568004555       -0.17902300920929        0.00150013028938
H            3.91108580537010        1.86140461937981        0.00285720874390
