25
 energy: -48.296962186279 gnorm: 0.000582229236 xtb: 6.6.1 (8d0f1dd)
N           -2.83285387511501       -3.42247494485812       -0.11376271528059
C           -2.49866153699232       -2.32520841430104       -0.13502607830352
C           -2.14478366980858       -0.95449239660869       -0.13439590717627
C           -3.15996635042808       -0.08551613530163       -0.67245509772986
N           -3.29153451803891        1.17970048478863       -0.56259486484628
C           -2.39962470962692        1.99210413220329        0.09431191327182
N           -1.11494179995052        1.86547266656792        0.12859591726920
C           -0.33261477966937        0.78837229260966       -0.00734947961282
N            0.93073429365155        1.02242068098181       -0.22353796417135
C            1.80965204393596        0.01834067353812       -0.14918044750515
C            1.42624320708762       -1.34300231944125        0.25758496604375
C            2.63722084935851       -2.11545236905799        0.36190422430375
C            3.67266777629494       -1.30541488900748        0.04262078134889
C            3.18558186087895        0.03588719438538       -0.26451847108455
C            4.00419088126022        1.11513594616556       -0.59106463760480
N            4.70784322512079        1.98243930553530       -0.86468924342678
H            4.71457491109052       -1.56914217342903        0.01288413043824
H            2.67865665202468       -3.15550829171576        0.62370147889580
C            0.11522432957488       -1.61953495604200        0.46700255208908
C           -0.84409763159508       -0.59724312369222        0.18915159918069
H           -0.22714032895896       -2.59759588841928        0.77858461427861
N           -2.95295503154699        3.09551466878534        0.62430369734254
H           -3.91201066574525        3.30767212062928        0.41221200622562
H           -2.34280740750283        3.81427646791546        0.97311898392028
H           -3.94200232109910       -0.57944529103140       -1.24407285846670
