27
 energy: -52.535951647694 gnorm: 0.000672842804 xtb: 6.6.1 (8d0f1dd)
N            5.79598510142422        1.09167885307177        0.10973350167855
C            4.68122444351354        0.81675529114658        0.15793089278059
C            3.32703637280808        0.44318838223200        0.20364675733369
C            2.37706240283783        1.37663023393533        0.70266223364257
N            1.09664636534961        1.36603075348593        0.57864159658860
C            0.25788347856056        0.38265996990676        0.22493952105094
C            0.66087296911190       -1.03998218818442        0.32780454551181
N            1.84601279930262       -1.48428926584996        0.06505584442443
C            2.97647097457920       -0.84050637018436       -0.25998700829508
N            3.85897656705868       -1.58179145401945       -0.95203201973235
H            3.62867695795438       -2.53522621725875       -1.17151130014865
H            4.78080647820342       -1.23026147789879       -1.14734279495561
C           -0.34805838614794       -2.02472871787431        0.59772114467262
C           -1.64248481548683       -1.70151742580119        0.37004415069682
C           -2.84731811248158       -2.50080670023175        0.40111617181237
C           -3.87973800751927       -1.71604977500582        0.02503500518906
C           -3.39596287562943       -0.36784821438779       -0.26218709051137
C           -4.22353643428275        0.67523458098044       -0.67812877684850
N           -4.94625785611832        1.49662998330613       -1.03088554273122
C           -2.03256846598785       -0.35139653293099       -0.04862630120530
C           -1.06868665304956        0.68449779321574       -0.05631811513734
C           -1.44515298622848        2.02425341385034       -0.29047622680722
N           -1.73602649660224        3.11432915609422       -0.49414056103214
H           -4.91355787244000       -1.99655389065345       -0.06189387568010
H           -2.88029771802033       -3.53823684836233        0.67243618561468
H           -0.03120896515248       -3.02403153969554        0.85458542814198
H            2.77489148414373        2.27253451351199        1.16956885454464
