23
 energy: -44.841548077504 gnorm: 0.000519824617 xtb: 6.6.1 (8d0f1dd)
N           -5.43312860065741       -0.75609608846392       -0.00296920076210
C           -4.29376349985013       -0.63792104344855       -0.00200843299232
C           -2.88241344589022       -0.50414726674902       -0.00106312602115
C           -2.14361301879215       -1.70750172424154        0.00019617744279
N           -0.86006164924223       -1.90591115497358       -0.00052328850304
C            0.17502028000825       -1.07799190328914       -0.00061182741297
C            1.40103523513201       -1.75104249063150       -0.00220017633506
C            2.58399893273771       -1.04520406948517       -0.00098545336875
N            3.86374041938108       -1.42866940976873       -0.00140213685872
C            4.54162115721201       -0.27576186136777        0.00106231760774
N            3.82769173203420        0.85880673334560        0.00328075971986
C            2.56282511091098        0.43683186481543        0.00208635811193
C            1.36317166155159        1.12132358369548        0.00309763283202
C            0.15558401455593        0.42308824946955        0.00140222006209
C           -1.03319622597643        1.18370699298003        0.00048611178625
C           -0.90055609050298        2.60313205463568        0.00061798633729
N           -0.87417675358691        3.74831790001787        0.00123560958681
C           -2.37353057688388        0.78896186106769       -0.00119794709012
H           -3.10151139750110        1.59317260048276       -0.00226129038533
H            1.36975551812879        2.20167325901234        0.00503182068318
H            5.61635146421050       -0.25810832710365        0.00134889844891
H            1.38822382089964       -2.82945384942904       -0.00374654048070
H           -2.72419582287917       -2.62630330897081        0.00115305599138
