29
 energy: -50.374064854825 gnorm: 0.000532983794 xtb: 6.6.1 (8d0f1dd)
N           -4.90296581085082       -1.94683784828191        0.83568920365034
C           -4.08545410037990       -1.19352812698014        0.54485409395904
C           -3.07010809974004       -0.28919263613255        0.17564944541916
C           -3.36179324753723        1.04972051836871        0.15870172573702
N           -2.63631196057991        2.00955175401338       -0.42453617764954
C           -1.36606305914330        2.06025062171933       -0.60173048283117
C           -0.32690691030551        1.19402380314341       -0.13375969753869
C            0.94189940428593        1.71813042181253        0.07738202947324
N            1.17761553032892        3.06575592005559        0.09164480010473
H            2.08086251384094        3.36029269128322        0.41864926262348
H            0.41388919221878        3.69471560309634        0.26506029936517
C            2.02971708747042        0.82696667373158        0.24213488122226
C            1.82841940146983       -0.58937750974238        0.03074477832054
C            3.14480172435922       -1.15004410639211        0.16979378265470
N            3.47939453445122       -2.48480402079378        0.05073427832468
H            4.46176333576317       -2.63033571517977        0.24620583497998
H            2.89016316364059       -3.11582494350972        0.57778956603271
N            4.04387170183483       -0.21270994624564        0.40145050082312
C            3.38753067999781        0.97899055162681        0.43579190348406
H            3.95239853670355        1.87747057782018        0.60676726257895
C            0.60823219313953       -1.12196140399570       -0.30736981399663
N            0.49574460902769       -2.43580275683003       -0.64704225714860
H            1.35996099584789       -2.89584584531315       -0.88748607871665
H           -0.31828694190879       -2.73882595208555       -1.15497514938563
C           -0.56169140932206       -0.26306987500025       -0.18095115016011
C           -1.78179033124146       -0.86936661625023       -0.10532531954940
H           -1.80545735390242       -1.95221865718419       -0.11880050238148
H           -1.04236705133432        2.92033074897650       -1.18634362490316
H           -4.32197894373442        1.39178989847173        0.52886769100707
