31
 energy: -59.449923341385 gnorm: 0.000877525295 xtb: 6.6.1 (8d0f1dd)
N           -6.00481097163068       -0.43669945073568        0.19185089174506
C           -4.85618395112586       -0.41364121632983        0.12049998942405
C           -3.45443281403017       -0.37985928060149        0.02783385788059
C           -2.86604900440384        0.89821443162096       -0.18445617654330
N           -1.59899149642835        1.24319239698257       -0.08957519501815
C           -0.47804364001211        0.56472536594223        0.00035946546268
C           -0.32049852182095       -0.90303043462707       -0.09669269027252
C           -1.38472478036209       -1.79682281359274       -0.01611733381549
C           -2.76806286658208       -1.61040606665443        0.11981854178047
N           -3.51392656535884       -2.72622090022312        0.31957849889604
H           -3.07840853663551       -3.62974287643489        0.35656469678540
H           -4.51479146955289       -2.66561095845426        0.38704823924315
H           -1.08556837388637       -2.84056685331960       -0.00690671432678
C            0.97057877067622       -1.44109477799123       -0.18623034799409
C            2.08336949579359       -0.63560954575510       -0.09271143441608
C            1.94254997078798        0.81582429981325        0.11906150912290
N            3.12574085021617        1.41709441248136        0.21500784485380
C            4.04816867450387        0.44311024608429        0.07748273188067
N            5.35166827183785        0.71531164983535        0.12468997721343
H            5.64220807892277        1.66777190175174        0.26350976235947
H            6.03225551310953       -0.01770465323495        0.02307536720401
C            3.46625897900712       -0.85398912468531       -0.11642005795521
C            4.17295476531488       -2.03616740115365       -0.28183581629167
N            4.79109501172565       -2.99900975040978       -0.41427408696331
C            0.67070010168509        1.37601598396898        0.16158369686978
C            0.49327743741243        2.76800069398264        0.30475713507740
N            0.33581264149841        3.89811518051099        0.42221402143294
H            1.09126296827582       -2.50950338800249       -0.30092673890772
N           -3.67787176305571        1.93967652444934       -0.46557794860925
H           -3.25437761341589        2.85084142593281       -0.51253001975468
H           -4.67858273746751        1.84619785535040       -0.45812694276336
