22
 energy: -45.112551421362 gnorm: 0.000924557426 xtb: 6.6.1 (8d0f1dd)
N            5.93010783113952        0.68148302177315        0.20584176243481
C            4.80110886624640        0.48908932390264        0.13735719050453
C            3.41373578110237        0.25118189255039        0.09519986726363
C            2.97969469387073       -1.08224520814303       -0.01018327856520
N            1.77477420816114       -1.54609776192381       -0.13870271021326
C            0.56976183317956       -1.05714582281340       -0.01440301797576
N           -0.48061633458147       -1.77093382171358       -0.07529760680300
C           -1.72786166503023       -1.38846465916449       -0.16279835765001
C           -2.95820638044254       -2.00770508497390        0.05565287837315
C           -3.94171434323812       -1.02782842784407        0.08536215923540
C           -3.34860281566031        0.24935253258642       -0.01040704133684
C           -4.00741029417050        1.48150068826748        0.04239017322187
N           -4.56680989895570        2.48236915888616        0.09330829539137
C           -1.97104700470033        0.06894609342589       -0.20832936238501
N           -0.92979985017574        0.85175157074326       -0.13486454027981
C            0.29789357576811        0.53318175368522       -0.03655123421155
N            1.27149464725009        1.39588205467411       -0.14382398889985
C            2.55868809140380        1.36598899257683       -0.00162472885029
H            3.01740557281167        2.34936040010073       -0.03937177392606
H           -4.99619333064419       -1.19773659183778        0.19538975926890
H           -3.10316584307760       -3.06692739714413        0.14173283656964
H            3.74159891354417       -1.85454965661586       -0.06334252866770
