28
 energy: -51.465545844216 gnorm: 0.000610450610 xtb: 6.6.1 (8d0f1dd)
N           -5.43395175078703       -0.78973144398144        0.11239494912912
C           -4.39363853057158       -0.30360367400247        0.08102866424201
C           -3.10429472252623        0.26854236980608        0.05093544362780
C           -2.99734839999972        1.60785139014417        0.42662363829559
N           -2.02934226194741        2.42580452596993        0.09725453593928
C           -0.81590439010153        2.16471961513480       -0.27545043841513
C           -0.05994818031084        0.97950421039117       -0.07408766205827
C           -0.64708961372476       -0.34211293780110       -0.02385652654332
C            0.24289353812629       -1.43575159855728        0.17415496748201
N           -0.22385069153696       -2.74765268574369        0.32548206756975
N            1.55944713494471       -1.33483818500568        0.21625547722350
C            2.11683628987431       -0.15278155032997        0.07461362408762
C            3.48243601568916        0.20883239625441        0.04056896866571
C            4.57031694694985       -0.66188400504819        0.09163673600154
N            5.47368476457317       -1.37235798960155        0.13122949828888
C            3.53261748612150        1.61124947372132       -0.04760726183457
C            2.24474704072888        2.13732164642057       -0.08391320161884
C            1.33363429472115        1.07553125721723       -0.03403076174259
C           -2.02970211761016       -0.59322681377816       -0.31676958991750
N           -2.36188136420908       -1.76058377065283       -0.88511999821588
H           -3.84852119224240        2.07827315427584        0.90615681002300
H           -0.28074669689557        3.01948104673242       -0.67559124401891
H           -0.96059106894662       -2.86076963306808        1.01045569649031
H            0.56155225646677       -3.35656922203455        0.52426321729873
H            4.44175993192647        2.18451110658242       -0.08305241410601
H            2.00735487092178        3.18428542021343       -0.12309589111149
H           -1.64650400662902       -2.45846454394102       -1.03955031717727
H           -3.33124731580362       -1.99212130731817       -1.03320444090488
