30
 energy: -54.933294730753 gnorm: 0.000592433047 xtb: 6.6.1 (8d0f1dd)
N           -4.26188853141807        2.54751810807682        0.25776459582367
C           -3.47415429420196        1.71273804892583        0.17759016876137
C           -2.52417300384452        0.68329777393546        0.06737549483437
C           -2.97474669594455       -0.54099091279977       -0.52481097668906
N           -4.05334832985895       -0.50653173985404       -1.32767583723969
N           -2.50416276185233       -1.72816382546837       -0.23110189936660
C           -1.34769509334470       -2.06119958074157        0.30936614530164
N           -1.32576794116717       -3.26656863913448        0.90216418156587
C           -0.12530970304088       -1.32290352112452        0.17862326546732
C            1.08771488890435       -2.04321961052334        0.04456874151000
N            2.27430946720318       -1.51004785537749       -0.05516650338476
C            2.35434861457784       -0.18715383910124       -0.07388420305644
C            3.48826301480832        0.63153976322819       -0.19180472534647
C            4.81609597456122        0.21643192974259       -0.28091809356944
N            5.92060275861706       -0.09809664594955       -0.34561087693654
C            3.03557836668392        1.96779823041855       -0.23248720411558
C            1.65971087859400        2.01035616353665       -0.09766245233976
C            1.18223430274077        0.69015189001138        0.01845535754294
C           -0.07271132893588        0.09967777103236        0.19810759164116
C           -1.22295195257651        0.93259437534559        0.51065238553733
N           -0.98022698542122        2.05840454052549        1.19620098291340
H           -4.55702489982141        0.35119003597199       -1.47371133534343
H           -4.44274191910053       -1.37460812322723       -1.65135487385764
H           -2.15684162058208       -3.83229606023181        0.87814168007937
H           -0.46912666446777       -3.65213985821844        1.25734732637741
H            1.06382128139398       -3.12360234413630       -0.02638196078674
H            3.67845436017478        2.82232237960917       -0.34957799868320
H            1.07321429494107        2.91055189262902       -0.16483952949615
H           -0.03556813255647        2.27633173891071        1.46877141892009
H           -1.71719853656608        2.72208156678816        1.37038152613480
