23
 energy: -43.276102016772 gnorm: 0.000688713102 xtb: 6.6.1 (8d0f1dd)
N            3.38353264977700        1.86622842366692        0.84081648624106
C            2.68920102435174        0.91954713437174        0.18569843121485
N            3.42073276539613       -0.05308920987761       -0.38221590328403
C            2.87242666107905       -1.18984375146905       -0.73728063900519
N            1.76544377789286       -1.76066633003127       -0.33372664571608
C            0.66630239402475       -1.19743430487381        0.13137989984470
N           -0.27287712958661       -1.97590978811647        0.64926923986882
C           -1.53136905078693       -1.56599889893612        0.65259074760359
C           -1.91386244452691       -0.38699557639514        0.04590387622167
C           -3.14601069075351        0.29879817324744       -0.17231093758009
N           -4.38614326529800       -0.15735732771576        0.05096369432873
N           -2.93673485168979        1.54897300010280       -0.63484111367578
C           -1.61914937970206        1.72245654686220       -0.72154270876338
C           -0.90283496016626        0.57569016691431       -0.33715112736910
C            0.43692864634190        0.25720034723130       -0.11273652084737
N            1.39473715042134        1.14946589047301        0.02509635157081
H            4.38679010796890        1.82068018390778        0.82697102847994
H            2.91519399296843        2.70846759305205        1.12433543831330
H            3.49120320509591       -1.81373057921844       -1.37756800652157
H           -2.23653513746771       -2.23608965046847        1.12954069169448
H           -4.54433636700547       -1.10601224640205        0.33705151203117
H           -5.16255770313937        0.44032094745325       -0.17086901825797
H           -1.21565679059519        2.65790166782121       -1.06190775049240
