27
 energy: -42.955790274515 gnorm: 0.000788524503 xtb: 6.6.1 (8d0f1dd)
N           -1.50025335586550        3.20938817790830        1.06976309908547
C           -1.45879297897362        2.14490489582229        0.63955682071644
C           -1.59024297111412        0.80178583597339        0.20702554504110
C           -2.94320324735453        0.45508413942400        0.10110472179364
C           -3.51811108198211       -0.76094343042529       -0.19131221945841
C           -2.86509130103480       -1.98813696164920       -0.30014850637563
C           -1.52944864187723       -2.26323848600650       -0.14774911890515
C           -0.39802301009459       -1.42841649062608        0.00926170104673
C            0.82126492154694       -2.08359555869935        0.14153504497741
C            2.06288025682367       -1.43782321561012        0.16083666853567
N            3.20484825719861       -2.14974586775634        0.29333194030685
C            2.07529045201393       -0.05225796061818       -0.03187544903790
C            3.11771151711401        0.86621852980137       -0.17342876477343
C            2.55320526692446        2.12717326260250       -0.38696640694958
C            1.17379752924926        2.02603480035521       -0.35714774940423
C            0.82609756752443        0.67327842780692       -0.12315502545223
C           -0.41362405293953        0.03684829348529        0.00411680007534
H           -3.62939837893391        1.28005748770457        0.25952158042308
H           -4.59456849812297       -0.77416342109584       -0.29822685563620
H           -3.50379164132046       -2.84309298128945       -0.48598522637850
H           -1.27737484444786       -3.31682737899093       -0.20234640538016
H            0.81834980227426       -3.16336375788884        0.21062367783120
H            4.08515657372929       -1.67256740301608        0.35552355762341
H            3.17160586603552       -3.13530779714829        0.48175041761405
H            4.17139455397277        0.65112140282402       -0.14682320267067
H            3.10664451148208        3.03298551144387       -0.55691606620753
H            0.49532899857193        2.83745579086908       -0.53307161124065
