26
 energy: -47.239388327813 gnorm: 0.000395659899 xtb: 6.6.1 (8d0f1dd)
N           -1.51636771072131       -3.72750867578686        0.43413417689091
C           -1.24258751998779       -2.62432062934860        0.26588776024473
C           -1.00461636920826       -1.24719665731995        0.09959046529340
C           -2.11956617978794       -0.36781454148396        0.18017680943692
N           -3.34078019247039       -0.84978159352706        0.45674351454808
C           -1.88998873579037        0.98763926587298       -0.07870165394685
C           -2.71253051163263        2.12350268211655       -0.14609762285361
N           -2.00442017220491        3.22438991209434       -0.40453401040355
C           -0.72076033533150        2.86122172129957       -0.49350531299348
C           -0.55689735167303        1.48176737528811       -0.30299786120535
C            0.56990230305712        0.63723022559716       -0.25016960970662
C            1.83794230879519        1.14870214525827       -0.05061140959701
C            3.04378691687652        0.43255144407957        0.17035363103111
N            4.06580149415954        1.09353787996493        0.74977476448058
N            3.33478364899376       -0.80192370828308       -0.21716618675232
C            2.45969946155673       -1.65863198596807       -0.70385008380915
N            1.17211459086363       -1.74254529472037       -0.55469651032468
C            0.29163561182999       -0.80924484434230       -0.20922385238784
H           -4.13715825040307       -0.23811990705341        0.44104200927018
H           -3.47711364336487       -1.83914762953737        0.58505941415264
H           -3.77837211732277        2.18513639102884       -0.01636935318092
H            0.03105973315664        3.59620684979154       -0.71691129028804
H            1.90054038943119        2.22257789155457        0.07704525212089
H            4.93850814434707        0.60974191559332        0.86888755137190
H            3.98892664205445        2.06019542634175        1.00813884047407
H            2.90772518667690       -2.50558382781071       -1.21741432936615
