32
 energy: -59.163510196958 gnorm: 0.000855818517 xtb: 6.6.1 (8d0f1dd)
N           -5.92564973559699        0.47069402559780       -0.33154329241253
C           -4.86172038556217        0.05257675564247       -0.21283018799990
C           -3.55543778988433       -0.46637136776731       -0.05692229427146
C           -3.51679150924733       -1.79595570375626        0.32931837933090
C           -2.40956176977798       -2.62658369527064        0.42519032344212
C           -1.09563458955438       -2.27505739189741        0.21521648945139
C           -0.48396177631411       -1.02427804456412        0.05330500365646
C           -1.11399347744139        0.29373833542980        0.01167147923890
C           -2.49243844983742        0.46379390192128       -0.30530379969299
N           -2.88114619618687        1.61190150157781       -0.88714473659469
C           -0.28646126254652        1.43945930298684        0.15815444408256
N           -0.84131850771548        2.71519157263362        0.31615407839280
C            1.11559541133435        1.35270377759549        0.13024589754994
C            1.88568850838560        2.51972112301342        0.30046918610693
N            2.47399687712695        3.49363128281359        0.45968638678284
C            1.73673674702347        0.11375602432684       -0.04216561447993
C            3.05735304743802       -0.33713394524723       -0.12657402852952
C            4.25248516988317        0.37078575568727       -0.17540264438825
N            5.27456013119152        0.89664633640496       -0.23170066771812
C            2.94790116355489       -1.76354014851982       -0.16572413983243
N            3.97822146591340       -2.62382742560683       -0.22559260450312
N            1.67727429259932       -2.18545392845824       -0.10324589417171
C            0.91550810096837       -1.07735585131369       -0.04366516515791
H           -4.48420175082637       -2.25072056259746        0.50860191165246
H           -2.60743121377904       -3.66511565767472        0.65138053244205
H           -0.36990673048507       -3.07960854104730        0.22910532066447
H           -2.20426174861535        2.33468232792198       -1.08204223750239
H           -3.84878348736561        1.75522036863512       -1.12641415616364
H           -0.14450715360731        3.41739243936827        0.53370728807073
H           -1.63190291701593        2.76484446757928        0.94432703693028
H            3.78484552504527       -3.60308622363228       -0.33318914400949
H            4.90837026158923       -2.27830748858427       -0.38197793916536
