30
 energy: -55.726150942281 gnorm: 0.000634985362 xtb: 6.6.1 (8d0f1dd)
N           -6.20778372295743        1.54769393842508        0.75417575590570
C           -5.20542203915002        1.01835608443027        0.57004528087276
C           -3.98218201382360        0.37373958090009        0.34213896808833
C           -3.82123530861273       -1.00378820247707        0.09412893902273
C           -2.45191822019195       -1.25114605521245       -0.06820266740833
C           -1.73550289406967       -2.40136773344333       -0.39044937708132
C           -0.36334308492929       -2.34142696896558       -0.47745992846826
C            0.36707960047025       -1.15628327799374       -0.25926118285431
C            1.75661335054744       -1.25289516036915       -0.06144820359747
C            2.30128177964885       -2.55853706250618       -0.06806787438142
N            2.80790321224431       -3.59065731959367       -0.07437925353884
C            2.72152519297410       -0.24374473551832        0.24543917378032
N            3.93321667638095       -0.65898489535268        0.67658725977860
C            2.53763874963652        1.13858572235484        0.07751669068560
C            3.64727417267477        1.97319804301874        0.29288105054004
N            4.55118904178148        2.66738800181468        0.45331115147192
C            1.33652357527235        1.78352174888620       -0.35295376815255
N            1.43006100035684        3.04764023285267       -0.81337372476364
N            0.11376869803685        1.32248714801490       -0.26861008194697
C           -0.37626382111158        0.10873432341941       -0.12068260463368
C           -1.76018243860103        0.00032156986898        0.07274763565284
C           -2.72712383399643        0.99423712447924        0.32166185014564
H           -4.61431563018515       -1.72547427823951        0.02915438092642
H           -2.24576094440311       -3.34075385232658       -0.54465452040525
H            0.18853397769172       -3.24866201960607       -0.67515779404567
H            4.14742905240837       -1.63991901107381        0.73806682769158
H            4.66770804360160        0.01143332219331        0.83033933552117
H            2.30308946395838        3.54594208162374       -0.79881503807333
H            0.57686811776703        3.53656457651380       -1.02179486549450
H           -2.53503901271977        2.03805327468250        0.48179801246193
