25
 energy: -38.710702065693 gnorm: 0.000494183344 xtb: 6.6.1 (8d0f1dd)
N           -2.58710318702222       -2.10771379488588       -0.38606841485721
C           -2.12552671815578       -0.85809704230242       -0.10864953281862
C           -3.12612760782361        0.11107519132851        0.03749775146370
C           -3.03480247656645        1.47283074289397        0.22309568595974
C           -1.89363120489731        2.26123975146312        0.17089918229625
C           -0.59243411446195        1.84484317530555       -0.01064768169653
C           -0.01747911010985        0.56631817423422       -0.03143789099371
C           -0.71005223314124       -0.70638562775968        0.06767877245888
C            0.04640391806677       -1.86838836210769        0.28118250574676
C            1.43073248057179       -1.89534308854119        0.31445154611648
C            2.12490093714586       -0.72847484754456        0.07368148438964
N            3.45518743421285       -0.52541543300491        0.01266411234860
C            3.60532858108537        0.78123713409309       -0.19545600759527
C            2.39433150713143        1.47893878544510       -0.26439365455802
C            1.39328152921634        0.51657856001047       -0.10302369859957
H           -3.56477492614045       -2.23000990877977       -0.58440194874984
H           -1.95621701946098       -2.81878191544100       -0.70821024365514
H           -4.13522766772731       -0.28557768641426       -0.00479485327810
H           -3.97314004219563        1.99441720008849        0.36337924053124
H           -2.04707917495304        3.32907881509633        0.25914397251054
H            0.13305413726775        2.64463547335994       -0.08407164613539
H           -0.46519372596332       -2.79795811647367        0.48465791864776
H            1.95703102604977       -2.81701527943826        0.51088502382524
H            4.59241909237900        1.19993767268659       -0.29362368389511
H            2.29491833919214        2.53585207818796       -0.42669345846250
