30
 energy: -55.711856451879 gnorm: 0.000428241644 xtb: 6.6.1 (8d0f1dd)
N            2.96825363746211        2.70301787679923       -1.34346212593893
C            2.05235796980411        2.20272170988092       -0.86488573912105
C            0.83897069397481        1.63929302025219       -0.41329150922167
C           -0.27382765828272        2.48093928709823       -0.36736693638665
C           -1.47490097304853        1.93738856572296        0.01852332210600
C           -2.74016550946118        2.49941399157453        0.31171325481710
N           -3.60919020799182        1.57962965017822        0.67456403817181
C           -2.99475252184849        0.36751156869241        0.59733592247482
N           -3.67537261365244       -0.68648304779817        1.06939643444567
C           -1.63232449290430        0.50710419244770        0.17064104703497
C           -0.55803894914013       -0.35810882840458       -0.07637516693560
C           -0.75374684918336       -1.72974361684622       -0.41074643538710
C           -2.03874946273965       -2.10258215681091       -0.83619904219646
N           -3.07742004331993       -2.45444116601253       -1.18856596833514
C            0.16529933889350       -2.78040847953922       -0.50778317308916
C            1.49383915923636       -2.82719427759267       -0.17987275676037
C            2.31563810429600       -1.76983010810343        0.25630680221580
N            3.55569380737010       -2.10440532728795        0.67469625408540
C            1.97151817850181       -0.39970975323078        0.22561720760199
C            2.98705527253499        0.44741967180276        0.72676388889420
N            3.82686599679330        1.02709777393710        1.25816436250738
C            0.75631288066842        0.25428032543342       -0.12006011569510
H           -0.16639153279432        3.53202157433185       -0.58917885943442
H           -3.01178935158493        3.53841686253916        0.28253381427561
H           -4.63879846939837       -0.48471090099703        1.29168084523427
H           -3.45710592582571       -1.62909771924864        0.78873752223194
H           -0.26440475406796       -3.71274860187216       -0.85730977904604
H            1.97778200752013       -3.79267652385061       -0.24846306180343
H            3.84946730269488       -3.06448058464103        0.66439454487454
H            4.21415053269367       -1.39581204555483        0.95217344637980
