31
 energy: -54.648833481291 gnorm: 0.000730945529 xtb: 6.6.1 (8d0f1dd)
N           -5.54129187747955       -0.96217705400636        0.35945989004951
C           -4.44500043738037       -0.62784837736225        0.25058082721571
C           -3.11737466817928       -0.22794454793046        0.12196919979263
C           -2.66933703221189        1.10685079169534       -0.01402635305917
N           -3.45958602400810        2.20193221931244       -0.02317256690015
C           -1.25616036896798        1.07770842334557       -0.06852248771635
C           -0.32399515523453        2.08597423352228       -0.16774554127792
C            1.02853301301264        1.76107573355010       -0.15681861149881
C            1.94641768910675        2.82423658783136       -0.20693402546212
N            2.66826608840480        3.71890098259077       -0.24803182209571
C            1.49948915775291        0.41143559435653       -0.09526466133618
C            2.87011937414201        0.22575759408417        0.04903800509104
C            3.63591924019656       -0.95225350244476        0.17178767666279
N            4.91811563066209       -0.80874900069562        0.58152824074574
N            3.31161964642555       -2.20789288024566       -0.11224689527745
C            2.10380292656252       -2.61587326068235       -0.46351302132333
C            0.87393564558895       -2.00277842302311       -0.43451068735493
C            0.52019467039055       -0.65899044269850       -0.14465492056514
C           -0.82476456721139       -0.30719310781272       -0.01912280983572
C           -2.00009630965683       -1.09529067554587        0.13651834635480
N           -2.10196059515803       -2.44246153370323        0.28885132986831
H           -3.06443080462939        3.09639625971370       -0.25036177731659
H           -4.45561454276659        2.08732618398288       -0.09611380254261
H           -0.61359116525746        3.12629396393429       -0.22651917496904
H            3.44752385665331        1.13866129234289        0.14663907872406
H            5.50386449731011       -1.62496681970740        0.57852272445977
H            5.33045137896846        0.09887167345172        0.69679439682318
H            2.10982756703591       -3.65536657425118       -0.78354338139905
H            0.05009420480456       -2.62869762697383       -0.74727517753226
H           -1.31524743093200       -2.93751623558808        0.67670001554762
H           -3.01300913704487       -2.78817639544353        0.55091091342845
