27
 energy: -51.756316657266 gnorm: 0.000875451344 xtb: 6.6.1 (8d0f1dd)
N            5.22105560789327        0.94382588290940       -0.43534591919630
C            4.10932158583014        0.66632357888620       -0.34349354374768
C            2.76367814975478        0.28559967585149       -0.20913350258529
C            1.77317607199177        1.20541017096874       -0.49563150652359
C            0.38698076034799        1.09226888239510       -0.34213708150623
C           -0.30018605805595        2.29162436631401       -0.59130366080400
N           -0.85767199179653        3.28345849996740       -0.76967381629054
C           -0.40698741999834       -0.06677736696119       -0.11074316959177
C            0.18755249048744       -1.40736265787043       -0.27899768842141
N           -0.52504552128537       -2.43757427346344       -0.72630251215031
C           -1.84038151133795       -2.38142417458875       -0.74227945802080
C           -2.51584899869881       -1.30009518267979       -0.20615361209995
C           -3.86828608578211       -1.01175509681428        0.07411211458214
N           -4.02550586037670        0.21130008083032        0.54651300921130
C           -2.80810543463769        0.81137029063355        0.56531430943039
N           -2.71787985513401        2.02683640532253        1.11538362976346
C           -1.78460249384365       -0.08782141512689        0.09835298825035
N            1.41132842184371       -1.71305883203862        0.10042634278948
C            2.49605839043801       -1.03091295923759        0.31776733028484
N            3.45965916203570       -1.63764137715457        1.03364497986291
H            2.11901363574691        2.18041165628020       -0.82388704450285
H           -2.35205236048323       -3.24539724951015       -1.14512886293882
H           -4.71192647295477       -1.66584301649522       -0.04962902406733
H           -3.60615139677513        2.44569827088574        1.34847467897083
H           -1.95703471843978        2.65121720975246        0.88923874498191
H            4.37806964655591       -1.23288419476170        1.10284264005605
H            3.31129892017335       -2.59066398640106        1.31893007297959
