33
 energy: -58.085437626345 gnorm: 0.000514190227 xtb: 6.6.1 (8d0f1dd)
N            5.69634000538612       -0.38516576531765        0.34193946025665
C            4.55578310927540       -0.24886398695271        0.25682673449488
C            3.17546901372194       -0.03670645956286        0.14091638466205
C            2.31915981224413       -1.08088885143439        0.44721257036348
C            0.93369580302448       -1.15531575179187        0.32108355181922
C            0.41458791453897       -2.37762035748342        0.78316759614669
N            0.03345480292597       -3.38952315310148        1.18123495495396
C           -0.01265102700089       -0.13463108276094       -0.02127774174945
C            0.35568040001702        1.27843858077348        0.07080505567618
C           -0.63706626086743        2.21460946806931        0.32222198057532
C           -2.00067039834347        1.90493891578395        0.32452525636453
N           -2.92862593941893        2.88836697873703        0.58059024728489
C           -2.36674142522107        0.59858981242753        0.01594708603047
C           -3.63531726549954       -0.02779905722310       -0.11447408904801
N           -4.85039176757636        0.55104908607998        0.14102714249650
C           -3.43639182384783       -1.33106312806120       -0.57360946177091
C           -2.06906845031041       -1.58482181460757       -0.66852424052679
N           -1.54907333668699       -2.68340199984200       -1.26148091348584
C           -1.35921593566428       -0.40193242958227       -0.23744172388642
N            1.56392605010251        1.79119322710903       -0.19250427071403
C            2.74317175768150        1.26004005331295       -0.31547638011475
N            3.68089757287023        2.05330010989027       -0.88999850847650
H            2.79767892110220       -1.98868977010827        0.80259568220385
H           -0.32687699941995        3.24087424397499        0.45081138548368
H           -2.55792223124152        3.82681580370374        0.59423606436091
H           -3.80842836132329        2.80315761697208        0.09675484497137
H           -5.62750292421270       -0.09244512282739        0.16866702541758
H           -4.86520886480376        1.24075394628975        0.87695364517548
H           -4.21398623490580       -2.03352831772085       -0.81100503075269
H           -0.58291240609696       -2.92048494091668       -1.11303530553853
H           -2.17213285798145       -3.46177913265044       -1.40040212311714
H            3.42775372784654        3.00371947942613       -1.09530103584983
H            4.65241745938915        1.79749069458739       -0.84858362479336
