32
 energy: -58.394815910590 gnorm: 0.000823484431 xtb: 6.6.1 (8d0f1dd)
N            4.39828879516844        2.11948179834760       -0.44452744106312
C            3.39546358243623        1.57897501701459       -0.28948468878055
C            2.14611427249418        0.95760580002296       -0.11102935271094
C            1.00255576349042        1.74217851728763        0.04064912288949
N            1.12651580696305        3.14274385788371        0.05071296915099
C           -0.26668696985154        1.13277797782835        0.20905189401143
C           -1.44213409376750        1.95352723589618        0.43626278457796
N           -1.32520541722536        3.06700053701538        1.17304910819112
N           -2.62082447756496        1.74778007744213       -0.10978985835048
C           -3.07446397686824        0.58576183606961       -0.55798210005081
N           -4.03007795493743        0.61167216170821       -1.49974479357545
N           -2.80357528731229       -0.58609470630556        0.00290137564442
C           -1.66200644813508       -0.91081751950883        0.55176679783553
N           -1.66945973153439       -1.89982177017278        1.44787527603266
C           -0.37785530229470       -0.28736710664348        0.22399303139557
C            0.75573476944911       -1.07052435228488        0.02895658268079
C            0.97659260538089       -2.47331140516523       -0.10197385945767
C            0.03086790619859       -3.48883138908444       -0.11719379614649
N           -0.75639546272949       -4.33339032423194       -0.11548555658655
C            2.35324579505047       -2.66569443873825       -0.31272039679533
C            3.00808653905232       -1.44174832632897       -0.31446246133193
C            2.05252660849774       -0.44439205670905       -0.13200369047043
H            2.07060659946221        3.43472730923622       -0.17349256582960
H            0.45438198407490        3.62093283061499       -0.53448806824773
H           -2.12928031676585        3.66192746712399        1.27629799666119
H           -0.41752066104836        3.36454304817618        1.49277264888071
H           -4.39393781334532        1.49435046955303       -1.80935916864166
H           -4.50859161725752       -0.24158982482350       -1.72618158700418
H           -2.51072749892897       -2.44649401527116        1.54446249523367
H           -0.80106532493249       -2.32915850218434        1.72399157259111
H            2.81304733399081       -3.62762495321445       -0.45550864995668
H            4.06100894509014       -1.28438312885398       -0.45592810947693
