23
 energy: -44.068318884570 gnorm: 0.000514787570 xtb: 6.6.1 (8d0f1dd)
N           -5.11945525962599        0.95855198812836       -0.28124257444747
C           -4.10259851643912        0.43035532954918       -0.19470041178200
C           -2.88060130429337       -0.23095784710297       -0.07885609097189
C           -2.68253810538657       -1.60602759929175        0.14115809259319
N           -1.39781223117788       -1.96031733172976        0.22212080495692
C           -0.69323301504639       -0.82967887676735        0.06814660463363
C           -1.57997511020061        0.31375919803046       -0.14640368248342
N           -1.13710503132877        1.54372280884465       -0.34233858499466
C            0.16117987952212        1.73445167369332       -0.28146720935792
C            1.12785257672224        0.73270118124411       -0.07333158664157
C            2.51220297689404        1.08451410620377        0.10954252081687
N            2.82713220191310        2.26947259727027        0.64147522055681
N            3.53247496148381        0.36783528591680       -0.35049732649892
C            3.53700005712840       -0.91159224196881       -0.57731853464489
N            2.79535136384793       -1.83446734858780        0.01313188300618
C            1.57122618156771       -1.70051277538389        0.40325299713837
C            0.68509763049063       -0.62851456783379        0.08257622928166
H           -3.45308175533840       -2.34893509809859        0.24606150041691
H            0.47764263290450        2.75537127816758       -0.45808851302873
H            2.11535284014878        2.91819391786393        0.92926673365128
H            3.79701340953735        2.53542850518273        0.69123519362334
H            4.34307890691662       -1.28504656605615       -1.19959014910799
H            1.14271254325915       -2.54026143137417        0.93974184038404
