26
 energy: -47.255741980929 gnorm: 0.000653946774 xtb: 6.6.1 (8d0f1dd)
N           -5.52396473740015       -0.79434118432085        0.00318985573752
C           -4.43156112045249       -0.44392537001970        0.00124413411266
C           -3.08568499245394       -0.00490560131895       -0.00065824917077
C           -2.90255154757798        1.39280207309534       -0.00418414241897
C           -1.73915004139140        2.10227406489192       -0.00552170306525
C           -0.39195997303787        1.65326155682301        0.00125139534526
N            0.54921945529681        2.58979886011959        0.00350291798164
C            0.07777106086869        0.29635830133190        0.00647278090439
C           -0.72276392171980       -0.91132668803153        0.00108173430116
C           -0.03975688161016       -2.16120777181302       -0.00006157330900
N            1.24993494156762       -2.36289934326450        0.00120765097373
C            2.00965452713020       -1.27072760974315        0.00607460638854
N            3.33761279626472       -1.18649658707385        0.01205676277407
C            3.57650907460263        0.13858968780142        0.02200373908179
N            4.83060941153760        0.62408517606802       -0.01543359959069
N            2.49377630329485        0.94169332114474        0.02552446549790
C            1.45220859474912        0.07536965785275        0.01270571644837
C           -2.11700247787368       -0.99700430980877       -0.00080781251096
H           -3.81928308618322        1.97145379469054       -0.00686132260677
H           -1.84140493443518        3.18181579281537       -0.01000821606560
H            1.53889847481348        2.26669527546132        0.00570807135490
H            0.30028735420145        3.56493725636505       -0.00671864679189
H           -0.63688871638320       -3.06500505693765       -0.00235571678746
H            5.57275805030995       -0.03366838483933        0.14514251529715
H            4.97962660139036        1.59334463327884        0.20046632371632
H           -2.50853674680834       -2.00921567556852       -0.00210018109806
