30
 energy: -50.101198988436 gnorm: 0.000810086065 xtb: 6.6.1 (8d0f1dd)
N            5.28507430948783        0.32433988794942        0.37049802397835
C            4.15725521612986        0.49786600856332        0.22090004537058
C            2.77788496939690        0.68997433114427        0.02624597861387
C            2.39217473787835        1.93097875008622       -0.51440596306955
N            1.22664913328639        2.50116303087781       -0.45320251057728
C            0.08436440522036        1.96296935250753       -0.06106032535456
C           -0.34212688247836        0.63782657099278       -0.02240152558454
C            0.54776490674137       -0.52203263698783       -0.05864181871842
C           -0.00511087085259       -1.79293180428180       -0.28042700957088
N            0.81780598681616       -2.92771352243746       -0.43538868813512
C           -1.38946929386768       -1.99703029998231       -0.33326126167706
C           -2.26119596206713       -0.96103670618280       -0.10705702336041
C           -3.65992737546513       -0.89453948340446       -0.03706329900848
C           -4.00673814634484        0.43789395098109        0.15263783589732
N           -5.27629714894432        0.94427717849002        0.22529638602104
C           -2.82764498140136        1.23157318040887        0.19341185287935
C           -1.73536805885567        0.39568127818193        0.05475675530488
C            1.92814825086252       -0.40004677033101        0.32633828122891
N            2.48619502927413       -1.43025681460516        0.99230432911518
H            3.17706321517693        2.54947090410378       -0.94007288503303
H           -0.67576314822613        2.71572533633488        0.11737294924616
H            1.63695027949024       -2.76849191845497       -1.00681602643729
H            0.29584798258983       -3.72542210451584       -0.77263158277758
H           -1.76138656454942       -2.99469275487992       -0.52757781077985
H           -4.33849756323106       -1.72272595217763       -0.11692621604072
H           -5.37975460933943        1.86437084177597        0.61984701530325
H           -6.01529889203363        0.29547180157785        0.43960474517077
H           -2.83014220944672        2.29856146619772        0.31893193963159
H            1.96210466057208       -2.28102802402456        1.12328121113061
H            3.46484537978101       -1.40214121560635        1.22689759763257
