26
 energy: -48.033787092202 gnorm: 0.000392795465 xtb: 6.6.1 (8d0f1dd)
N            5.67499622726169        0.82754735056200        0.61261785971279
C            4.56768462043002        0.56577083590393        0.45857794570316
C            3.21991370541082        0.22986337934050        0.27110716911922
C            2.73228701642505       -1.08493649338767        0.11323429174135
C            1.34701455932864       -1.01230665970351       -0.02812019895839
C            0.36872791468339       -1.99452142606377       -0.27049334954917
N            0.68506309201243       -3.29152174562686       -0.40588783346700
C           -0.97917789284520       -1.58753573300506       -0.31928559121182
C           -1.36846045442387       -0.26952332947508       -0.19188619360505
C           -2.70852084720208        0.05064185177130        0.17731914447110
C           -3.55706227763146       -1.03138676929201        0.50682064499294
N           -4.26718165766213       -1.89588741099236        0.76427225307687
C           -3.24423115388102        1.31922307659758        0.43439208756996
N           -2.84069474148509        2.49179819361190        0.00526285253347
C           -1.69987763539145        2.70273439279116       -0.62099608777356
N           -0.57620746445937        2.05111717158741       -0.52210519567021
C           -0.34202469701862        0.79916555278566       -0.19044911282982
C            0.97513930438866        0.38038001490855        0.02836843298090
C            2.15117266460815        1.12802412049600        0.20884180386208
H            3.34738583483438       -1.96644381209940        0.09734306124896
H           -0.03367276616267       -3.98119911782825       -0.54155280471060
H            1.63754789445707       -3.59443896230794       -0.30671979152848
H           -1.73916168557027       -2.35311114155558       -0.39562241176580
H           -4.18043974761707        1.35024468988640        0.98443741055297
H           -1.64961752834825        3.62857858759134       -1.18634731189526
H            2.21230644355653        2.19576149910590        0.29379168729787
