25
 energy: -48.308680133159 gnorm: 0.000488959018 xtb: 6.6.1 (8d0f1dd)
N           -3.62350315598776       -2.56744845945677       -0.00444265334284
C           -2.93961564824524       -1.64633798692405       -0.00518795218401
C           -2.14914423825775       -0.47101491813988       -0.00262707663691
C           -0.78132553044122       -0.64229861185037       -0.00194570016572
C            0.25581209168346        0.31153665756139        0.00003080920604
C            0.07043736248916        1.75087990461574        0.00038581461933
C           -1.16923234047026        2.41343857170270       -0.00102678258082
N           -2.40910340268494        2.00745756263713       -0.00130716183025
C           -2.88283930669787        0.76438659207553       -0.00135755223857
N           -4.21998910576184        0.70515095840189       -0.00056175747542
C            1.22278538660635        2.57457315007449        0.00181377064698
N            2.46756902754389        2.16802241130585        0.00293762414336
C            2.67776710072375        0.86338777646386        0.00269421914845
N            3.86979847463281        0.25781782123251        0.00348130012266
C            3.62617551863842       -1.04670259876783        0.00271060978756
C            2.24832925768495       -1.36474361168500        0.00125284583103
C            1.70164635239040       -2.64606302524088        0.00011687816748
N            1.23915589723394       -3.69982945354195       -0.00053042721725
C            1.58371910758513       -0.12192995581232        0.00124452653890
H           -0.44707173884579       -1.67455675379440       -0.00283680702195
H           -1.10479489798790        3.50008327172492       -0.00170409179898
H           -4.72879476897589        1.57405293607913        0.00011545950976
H           -4.71208381195895       -0.17371185187824       -0.00082908798833
H            1.09123103765401        3.64937668244271        0.00205507166008
H            4.43650595124941       -1.75357962412577        0.00313293089971
