23
 energy: -40.060991424307 gnorm: 0.000648166156 xtb: 6.6.1 (8d0f1dd)
N           -1.63554975841266        3.63909878193115       -0.46908431424261
C           -0.99808694905545        2.69687435891248       -0.32384154298741
C           -0.17983832532473        1.55664118137325       -0.17459031745696
C            1.20818015223483        1.69659513318039       -0.21748062125337
C            2.01438727100012        0.59625138087721       -0.00366393986688
C            3.41177067330044        0.44063185924136        0.04246126018291
C            3.69025306922884       -0.90864440419435        0.24692687801917
C            2.49910175697792       -1.62675680091595        0.31049576231269
C            1.42953664369327       -0.72314400381859        0.15797672991661
C            0.04866318524936       -0.90673218740408        0.08852135597075
C           -0.51445082833402       -2.14414850315305       -0.25367434397252
C           -1.85685835857060       -2.42836724547712       -0.49622986402545
N           -2.92791610225009       -1.80966865268556       -0.05212339632815
C           -2.90876060652597       -0.65707290613235        0.58844350058892
N           -2.05575784661418        0.31900849562406        0.46821490916654
C           -0.79195553798760        0.31083895760354        0.09762254099939
H            1.63415548864453        2.67798392979546       -0.37318272545122
H            4.13259020904993        1.22873568383694       -0.07180844276338
H            4.67369109079973       -1.33289880699993        0.33815419266326
H            2.41481629827465       -2.68424434532166        0.48189109402693
H            0.19393832398167       -2.92270900728121       -0.50784178965082
H           -2.07993478568571       -3.33309055576064       -1.05363758253931
H           -3.79559855777561       -0.43066298073179        1.17195075409099
