29
 energy: -51.197160854434 gnorm: 0.000755679806 xtb: 6.6.1 (8d0f1dd)
N            2.19194353882000        3.46490917066563        0.39571149497696
C            1.55128760995663        2.52107309536270        0.27370848473750
C            0.69794756185028        1.40781463436615        0.11963761667993
C           -0.68166843298668        1.63430107057846        0.05747149237141
C           -1.62001521454041        0.60924364655313       -0.03689907006249
C           -3.00284404390057        0.97316658337868       -0.21000303540499
N           -3.27544799192614        2.21151770208675       -0.67238329900437
C           -4.11031742919345        0.20911162759435        0.18631328411371
C           -4.12244200788779       -1.12430221328969        0.54434973875841
N           -3.23580731097904       -2.04679091121178        0.23741356316712
C           -2.00506654824862       -1.88546925477030       -0.15522679666445
C           -1.15372740450382       -0.76511732947538       -0.05994876869917
C            0.23678825275665       -0.99361551937687       -0.07081020352887
C            0.98353708898972       -2.17206954828826       -0.09902627214782
C            2.34729474899106       -1.84171938665662       -0.06205608293682
N            3.38632723416402       -2.70938323737303       -0.13760468534166
C            2.48019075076255       -0.42965227545013        0.00834775004751
C            3.69864324832486        0.24032467854778        0.06793780533519
N            4.74148094438319        0.72529126879620        0.11939769931033
C            1.18245088968627        0.11025951854270        0.01721891100633
H           -1.00473327191838        2.66134078949632        0.15097734577775
H           -4.22966523083376        2.51363548478304       -0.76090145419516
H           -2.54832370250275        2.81738183684443       -1.00703316811752
H           -5.05530455753514        0.73754380709917        0.23031996439705
H           -5.01708191590948       -1.51980769019042        1.01444335389773
H           -1.54553335421710       -2.80632769572462       -0.49950976818039
H            0.60929577665856       -3.17792678329057       -0.13163492834477
H            4.31147272451523       -2.35976533649956        0.04650800955029
H            3.21729149302498       -3.68879566969817        0.00833672890132
