30
 energy: -54.134152842549 gnorm: 0.000438430925 xtb: 6.6.1 (8d0f1dd)
N            3.98830818778183        2.42153429902940       -0.44876732338352
C            3.18214344972066        1.61833268291020       -0.27396620442217
C            2.20907672485546        0.62077505269608       -0.07057670097674
C            2.68736915440861       -0.70925361716424       -0.10061289999784
N            3.99721771258873       -0.88941714795137       -0.39704560807736
C            1.95445405550323       -1.84418362659290        0.24033979902260
C            0.58901584481571       -2.03453737136573        0.39676304930418
N            0.21658809011394       -3.22733967187904        0.90604286026105
C           -0.46377323736666       -1.10756040554029        0.05923739721723
C           -1.76273548508868       -1.61829264360111       -0.26085161767752
N           -1.96472815824925       -2.98587464704433       -0.51635440898384
N           -2.87081120759546       -0.91588400110013       -0.34552455062008
C           -2.78199408308431        0.38547110748116       -0.11863986566351
N           -3.75295562930879        1.31006785869858       -0.10278356526842
C           -3.09462452736465        2.44784179941846        0.09451984525845
N           -1.76530140999378        2.36815606913599        0.21289852905538
C           -1.51009482565149        1.04028334525068        0.09113353534834
C           -0.31917480734127        0.31220584571200        0.13706357745022
C            0.90523227658602        1.08632471470790        0.20965075960881
N            0.74761527021747        2.38341896670699        0.45480663088897
H            4.59693075189407       -0.09802338376260       -0.55530760163373
H            4.40698305565794       -1.80396636838361       -0.34712521279422
H            2.55586072435964       -2.73347404010763        0.39871555545790
H            0.91063451609980       -3.91640333310334        1.13340632707450
H           -0.76321677129678       -3.46247141240792        0.95856597175100
H           -2.92535329871131       -3.11567120859222       -0.81249442729867
H           -1.31553941060791       -3.38512273269587       -1.18223533352606
H           -3.60361329605316        3.39234001333689        0.16182138579525
H           -0.23409945612673        2.74939071882168        0.45816795837536
H            1.54235256833703        3.00150652528627        0.40615893465449
