29
 energy: -56.015535230234 gnorm: 0.000560778943 xtb: 6.6.1 (8d0f1dd)
N            4.74875700443488        2.59304953093044       -0.25489769617530
C            3.91626391185606        1.80465826542062       -0.20210160773330
C            2.93996153425167        0.78800159520369       -0.11665010580348
C            1.62743552718805        1.10179746386901       -0.35572497892035
C            0.46988198319412        0.30195808529607       -0.20782130799114
C            0.41304974028061       -1.12655765989867       -0.12022162950446
C           -0.81158160019879       -1.76996878068543        0.08302623047564
C           -2.01621894468867       -1.07768643854294        0.19601983812612
C           -3.20222675822131       -1.80592187674498        0.43871850519317
N           -4.13803981129111       -2.43889323954232        0.63360404324398
C           -2.01619895071286        0.30841559023214        0.03981206654843
C           -2.98287331447921        1.33231314265835        0.04022605667888
C           -4.36356104714061        1.21970946165904        0.20501648615960
N           -5.50281696334908        1.14845313343476        0.33693331709781
C           -2.25350626146724        2.51790938736481       -0.16959555640782
N           -0.94138862006355        2.31626642607398       -0.29306946664030
C           -0.75344363946501        0.99216831503776       -0.17784898668978
C            1.59218578121783       -1.92833265538283       -0.34812774636824
N            1.44703950964675       -3.13646473670155       -0.91106944020939
N            2.82069739673937       -1.64676685328559        0.02961645546463
C            3.41001602273348       -0.51251100537953        0.30496009826526
N            4.58662258762684       -0.58602531581693        0.94285773165440
H            1.40059825301635        2.13638511236307       -0.58913211353370
H           -0.83682747673836       -2.84397411120719        0.20409338917122
H           -2.65907391843053        3.51140163538239       -0.23537510222935
H            2.26334998560280       -3.70893937200654       -1.04524385114286
H            0.55375231342334       -3.45793402097933       -1.23810253583646
H            5.14325725571444        0.23866480143424        1.09345782223920
H            4.94452992251921       -1.48751705718456        1.20790803206714
