30
 energy: -54.871392106987 gnorm: 0.000761931137 xtb: 6.6.1 (8d0f1dd)
N           -5.68101281250203       -2.24659495189278       -0.01032273854037
C           -4.79204470453423       -1.51760516864768       -0.00697170223256
C           -3.68792631771518       -0.64340467134429       -0.00178794968761
C           -2.39185621450771       -1.29555284625923        0.01259763645728
C           -1.25726642368197       -0.58941180221253        0.00619945640046
C           -1.01844058402411        0.86468781292411       -0.00495840830739
C            0.35562682943803        0.69094037509219        0.00327855703377
N            1.41584901757097        1.49876909559627        0.00189510410338
C            2.64374603076735        1.05437230310685        0.00904062038778
N            3.58666067562396        2.03098243484934        0.04768180871095
H            4.56494588196818        1.82573757419093       -0.05000277282628
H            3.26911450585525        2.98137895674950       -0.01582948243100
C            3.16099455809579       -0.31426931448252        0.00155284291204
C            4.56691591279261       -0.38664007382363       -0.01805465233679
N            5.71724829977864       -0.44684131867959       -0.04124117775095
C            2.51466194641326       -1.55019274783270        0.00708421042914
N            3.26888835808142       -2.67391968132958        0.00347600815615
H            2.83240575335620       -3.57762117443292        0.00858221035950
H            4.27335180569362       -2.61839919832128        0.00141524747995
C            1.09044144942074       -1.78177881113170        0.01277223208085
C            0.19721316270966       -0.78726789588699        0.01147017953518
H            0.76712821642969       -2.81540365376771        0.01509537739242
C           -1.95660148746386        1.94031126853206       -0.00015453531538
N           -1.43947249657391        3.18024501752805        0.01399578163839
H           -0.44033696535098        3.29374192351866        0.02537479775893
H           -2.05941268498356        3.97123296786953        0.02743804815905
N           -3.26574395065925        1.83803875402792       -0.00755362365053
C           -3.98538369896167        0.70265036583797       -0.01636497390664
H           -5.04957884124322        0.93224402663276       -0.03394668208292
H           -2.38613055849373       -2.37713370931103        0.02375572807298
