27
 energy: -46.894337905372 gnorm: 0.000629385578 xtb: 6.6.1 (8d0f1dd)
N            5.97514735319283        0.10999919072679        0.04074129242335
C            4.82779986810479        0.10017160329507        0.03246615571698
C            3.40997287766813        0.07418420059721        0.02079220975517
C            2.81964175582070        1.33491215754042       -0.04093628620369
N            1.52924304529869        1.69988877777638       -0.04725138002871
C            0.57736992404486        0.83712062033619       -0.03014500631358
C            0.49803227226567       -0.68520224839004       -0.00113004390585
C            1.53036114662945       -1.60073045722242        0.06688462787454
C            2.86145682665645       -1.23149865061978        0.07725968771258
H            3.59339712609589       -2.02846828901973        0.13348477097047
H            1.30952126485722       -2.66150126019497        0.12611565512981
C           -0.89476529380257       -0.59098924901674       -0.00485523561882
C           -0.84955516293988        0.88380804960057       -0.02664663664654
C           -1.84526153723451        1.82175155573661       -0.06157985521519
N           -3.15203248559273        1.60631473426688       -0.02290561977617
C           -3.76846264552414        0.42389122960829        0.02180801141851
N           -5.11259513685006        0.58456760794190        0.09652491886050
H           -5.46117189512085        1.52541823620671        0.14905265479813
H           -5.74300774894466       -0.19075592159310        0.18256528551403
C           -3.31898520934537       -0.91823609916638       -0.02797965343168
C           -2.02672885030541       -1.42914145401248       -0.03672745002391
N           -1.83980555166259       -2.77154003991652       -0.04591713736584
H           -0.91250678794279       -3.13649412470875       -0.15959932042434
H           -2.61912359253113       -3.39187321236763       -0.17440986288398
H           -4.11338688562294       -1.65637450243964       -0.03845897496813
H           -1.57562608576484        2.87147407943255       -0.11468377060516
H            3.49450490434979        2.18348435890248       -0.08130671726259
