29
 energy: -55.141844188091 gnorm: 0.000900931107 xtb: 6.6.1 (8d0f1dd)
N           -5.27992932948979       -0.29250728234394        0.00518568857964
C           -4.12895492049471       -0.28818466107311        0.00205210560779
C           -2.71846276554969       -0.30227911955991        0.00028358946513
C           -2.16997299673968       -1.59320691210868        0.00256384666364
N           -0.86362230939476       -1.99225275104927        0.00088842773972
C            0.11130341298055       -1.17364249425130       -0.00213247224345
C            0.27161946828384        0.30833044136268       -0.00549182777115
C           -0.74124509317154        1.29329983804481       -0.00605241512522
C           -0.34292540631552        2.63608796745437       -0.00933841382561
N            0.02393670057399        3.72923545594396       -0.00802060500554
C           -2.11115015694738        1.00474359054751       -0.00354461885532
N           -2.97184737137378        2.05616094544169       -0.00522684948099
H           -2.61355985322453        2.99505541467258       -0.00624380496887
H           -3.96571479062039        1.91037169689336       -0.00172063557235
C            1.65111928290197        0.16884910879346       -0.00818033957168
C            1.56057520181311       -1.31275182832653       -0.00219927355882
C            2.50228138004954       -2.27145532878232        0.01136880975826
N            3.85052015615465       -2.05577897958935       -0.00160365598820
C            4.43611802409043       -0.90444598427295       -0.01233096863604
N            4.07988546177410        0.39578268561928        0.00362177037711
C            2.87453606903658        0.92140052039254        0.00542810614772
N            2.83258744213897        2.25946608384691        0.02215585409758
H            1.96981406579780        2.78113051445304        0.01688350851543
H            3.71301941881172        2.74772478621054        0.03269314589636
H            5.52365358313336       -0.99073826957481       -0.03517090038324
H            2.22786799599384       -3.31955939676264        0.02579722172201
N           -2.99134967992680       -2.66326260501023        0.00701899927930
H           -3.99206852163198       -2.56888111002332        0.00878017849358
H           -2.56225320505396       -3.57206066374836        0.00814556234322
