29
 energy: -51.143014520988 gnorm: 0.000532996495 xtb: 6.6.1 (8d0f1dd)
N           -1.20914832299596       -4.05307920731478        0.00019888306262
C           -0.46927741609321       -3.17128031236173       -0.00076559108124
C            0.40889050304184       -2.07393071334616        0.00004660892938
C           -0.12554059679461       -0.76016934824869        0.00054143489440
C            0.64515902959115        0.50218953385847       -0.00002424596177
C           -0.61802334690822        1.24122047075264        0.00021162923024
C           -1.32504159348297       -0.04773894688782        0.00092909723163
C           -2.73572312207053       -0.27758162839594        0.00186609576668
N           -3.18485719248301       -1.55189517165171        0.00318447425069
H           -4.17317667968904       -1.73156013784361        0.00304431108130
H           -2.55610076447396       -2.33756073317901        0.00217014908712
C           -3.64951589160304        0.76187216836658        0.00180019694112
C           -3.46860674758695        2.16339307795211        0.00098058191513
C           -2.35230723085886        2.95223480356210        0.00014479264318
C           -0.99433620837466        2.53423937161165       -0.00014342904567
H           -0.23043302074321        3.30068939062440       -0.00072656264518
H           -2.51157110034175        4.02168634152713       -0.00033600391213
H           -4.40714912444274        2.70670936752287        0.00107451632223
H           -4.68702322131733        0.44684038793366        0.00250072448924
C            1.96363035040908        0.78153329105498       -0.00041305786162
C            2.40841320645985        2.11829370398685       -0.00222048768903
N            2.81544989972065        3.19315889613502        0.00014336433974
C            2.99179383546717       -0.28400005730577       -0.00000201214136
N            2.84733202635622       -1.56966704206732       -0.00010252471366
C            1.76163467856632       -2.35793267386878       -0.00041197372868
H            2.03714902470363       -3.40832813102836       -0.00104937701235
N            4.27184965457148        0.15401904407786        0.00056661811839
H            5.00441308650643       -0.53364622667569        0.00074072361146
H            4.49474880436630        1.13382849180910        0.00025886857818
