26
 energy: -46.382714843784 gnorm: 0.000453540516 xtb: 6.6.1 (8d0f1dd)
N           -4.77145217964011       -0.09491452600736        0.02424462860453
C           -3.42476768108216        0.04928351074488        0.00785469109450
N           -2.81289190530120       -1.12381960707348        0.00499898240981
C           -1.48699626116610       -1.35020444118245        0.00031417490796
N           -1.13496348862732       -2.65011394251806       -0.00805024226559
H           -0.15889689568672       -2.88816848275470       -0.03099451839145
H           -1.84750462067616       -3.35651381600059       -0.04171973131730
C           -0.48966389958331       -0.38569942474736        0.01122902652280
C           -0.56683371131283        1.10187295119433       -0.00048872595464
C            0.82773041780770        1.20062520447451       -0.00762682814136
N            1.75612848345854        2.12255798249846        0.00241304153838
C            3.02941536009096        1.74502492004832        0.01244650071681
N            3.63395173446220        0.57273278296937        0.00944079622584
C            3.16256792426824       -0.66716298631495       -0.00649287917195
N            4.13078161750592       -1.62047294439245       -0.06628938409189
H            5.08230864432631       -1.32727246246861        0.06152417851472
H            3.87363528343187       -2.57842404348967        0.08604398482823
N            1.90713503020482       -1.17272956333852        0.00682059278473
C            0.91040865525917       -0.33635715147726        0.00129734942717
H            3.72728921357631        2.57912993630974        0.03056652860688
C           -1.69341934715313        1.90528333622346       -0.01433018893291
C           -2.97707309555873        1.41040376961525       -0.01177389877731
H           -3.78111857907533        2.13529201137286       -0.02042342396584
H           -1.55581703452261        2.97854551660782       -0.02856115150868
H           -5.38949837176941        0.69512603888594        0.04377409486590
H           -5.14539881513694       -1.02711228747938        0.04777088827073
