25
 energy: -42.655282551086 gnorm: 0.000452168275 xtb: 6.6.1 (8d0f1dd)
N           -3.76802891368247       -1.64945416986373       -0.11937567982610
C           -2.80910012510208       -0.68622694420499       -0.02391740338874
N           -1.56761256501687       -1.11592108047954        0.00155201701064
C           -0.54743763010021       -0.26693767870534        0.00242555725124
C           -0.46807363867516        1.24304008606303       -0.01958431274353
C           -1.45747888841748        2.15175849209394       -0.00190647111650
C           -2.83072567420646        1.72980803426210        0.03247724305111
N           -3.36728161107522        0.55902218052646        0.01808695077543
H           -3.56561077137431        2.53194000663717        0.08704389523900
H           -1.25656205104171        3.21541797516948        0.00434260552069
C            0.97454583976073        1.11865458283912       -0.01103819148816
C            0.83173625296636       -0.35176108209423        0.02192670396948
C            1.83418150787798       -1.36280357089698        0.02221202815350
N            1.39827676879976       -2.63458820835950        0.01201490946270
H            2.06610534750198       -3.38501495119487       -0.01251553464251
H            0.40832521538453       -2.80976142707962       -0.01190592358147
N            3.13639585410546       -1.17864452897847        0.03155312833644
C            3.77437778364296        0.00858803468605        0.03170523254677
C            3.39413478952798        1.32593625103394       -0.00748937853452
C            2.08416842368555        1.88644001024464       -0.03163245420636
H            1.99894686434727        2.96500561256358       -0.06152330115725
H            4.20481992320790        2.04285510660070       -0.01286343256528
H            4.85009025937081       -0.15634999155726        0.06072985755806
H           -3.49938497821825       -2.60601660347532        0.02530754615986
H           -4.71895575346904       -1.37096339403035        0.04369435481551
