30
 energy: -49.264273876648 gnorm: 0.000434976966 xtb: 6.6.1 (8d0f1dd)
N           -4.03224058713152       -2.32830728325591        0.04662012669441
C           -3.10028218224976       -1.30610798301720        0.00242166108498
C           -1.73941551112919       -1.72747605495090       -0.00330014421082
C           -0.68547205351648       -0.88716639637884       -0.00011507458547
C           -0.59501167092933        0.60070212449066        0.03495165817983
C           -1.59979525455573        1.54483973995627        0.08888374165038
C           -2.96053275117205        1.25452729861239        0.08222059665947
N           -3.82854788729630        2.34044492070743        0.05050173537847
H           -4.77254912610058        2.17141184575053        0.35868477652675
H           -3.44753408285587        3.21833274635593        0.36511943066366
C           -3.58355809678679       -0.01163906103678        0.03260801106876
H           -4.66894216304187        0.04937046261332        0.02821535547818
H           -1.32380564193523        2.59256781669314        0.14637595874494
C            0.80560791641866        0.52580655168483        0.04022578780849
C            0.75298826484764       -0.95819021654530       -0.00378013629448
C            1.76016020474760       -1.85548999777736       -0.11936815951634
N            3.07475555990581       -1.57985792391722       -0.05223396225159
C            3.61339394299179       -0.37921204290232        0.06463849111095
N            4.94346009574266       -0.42585534014134        0.33479240151412
H            5.40071154408797       -1.31926195897352        0.33068300316612
H            5.47251358546488        0.42593010317232        0.30335893108957
N            3.19382703128528        0.89355422967100       -0.08700571638575
C            1.94345261469241        1.32708354442445       -0.10272852605865
N            1.80791054680707        2.67777000516997       -0.22649046176408
H            2.63022250473353        3.18822963682682       -0.50095561706822
H            0.91029854750847        3.04483513333016       -0.48821700774742
H            1.55004570288087       -2.91417808840937       -0.24292237636456
H           -1.56013695101928       -2.79621389244607       -0.01510781871971
H           -4.98009799407544       -2.10011482563936       -0.20405367476356
H           -3.72170192311925       -3.23745751066720       -0.25314126268854
