31
 energy: -53.787422185766 gnorm: 0.000800038710 xtb: 6.6.1 (8d0f1dd)
N            5.18451513681278        1.71989777458177       -0.00923973077373
C            4.24522167267386        1.05045603795387        0.00060547516322
C            3.08313047875225        0.26740367433387        0.01091472833659
C            1.85387224096309        0.97976654134467        0.00521685045178
C            0.62479937808072        0.32552540440621        0.01220411587885
C            0.26428127645328       -1.11845228872264        0.02109708255367
C            1.03045609216856       -2.26188788495363        0.02566666423882
N            0.41089995305701       -3.46637738892882        0.06254654817153
H            0.93143342851636       -4.31226714844117       -0.08642351961046
H           -0.59003350718579       -3.47893492261714       -0.03560248600122
C            2.45714296386119       -2.21881967556615        0.02482405528137
C            3.28966559968882       -1.13368698942960        0.02022637884014
H            4.34643346428485       -1.38633055198737        0.02111884665626
H            2.93825755674705       -3.18939424951778        0.03027995705039
C           -1.10705491059685       -0.78746419818489       -0.00250269452671
N           -2.23525510459596       -1.42367887877473       -0.00357415569134
C           -3.39639906612056       -0.72736140771056       -0.02789268896302
N           -4.49154469268255       -1.55303523301876       -0.09986878751878
H           -4.31917493087105       -2.52289270975903        0.10144134975283
H           -5.39494654065376       -1.18802738260057        0.14445717537169
C           -3.61779897761412        0.64902753533513       -0.02961728511292
C           -2.74790731112424        1.75811240984726       -0.03194123803466
N           -3.32873882089763        3.00086058080438       -0.10595922615506
H           -4.29155053350198        3.10597003147352        0.16039244157616
H           -2.71680785440721        3.77741932918413        0.07789104834767
N           -1.41191390604177        1.80656624199571       -0.01384874298448
C           -0.71988069497076        0.69506392908163       -0.01077691677045
H           -4.66871921668177        0.92260506718596       -0.04501205410982
N            1.85023881214697        2.32705605781254       -0.00569632951242
H            2.71143798847167        2.84543619229295       -0.04014269888333
H            0.96259354616755        2.79891924897928       -0.03510431492252
