31
 energy: -48.970559775330 gnorm: 0.000350069721 xtb: 6.6.1 (8d0f1dd)
N           -3.98963385479904       -2.35919316992605        0.00261557719045
C           -3.07625219235828       -1.31570965691184        0.02408650132105
C           -1.70319500947129       -1.71853401893375        0.00353303717893
C           -0.66678639639705       -0.86408823450772       -0.00459031355592
C           -0.59119572488475        0.62472176198447       -0.00016370419614
C           -1.61800959799797        1.55627788304377       -0.05623465107138
C           -2.96702835577820        1.24610528319239       -0.06979093939953
N           -3.86245828187255        2.31606833968567       -0.05907544120939
H           -3.48715810770104        3.19621834105355       -0.37618242582436
H           -4.78476789588940        2.12318438519558       -0.41668482578691
C           -3.57580424297831       -0.03408510872173       -0.00991737733148
H           -4.66167188707383        0.01550626251074        0.00317304997043
H           -1.35942359278952        2.60912537808994       -0.10477605152941
C            0.80415704351513        0.56727100443320        0.00668126159819
C            0.77975771523511       -0.91514894219044       -0.00965826054428
C            1.76863108552431       -1.83345152935405       -0.01500255465687
N            3.09720889137707       -1.60376864455860       -0.05893508089404
C            3.68540006840330       -0.42511809439131       -0.03423813208217
N            5.05051980817351       -0.54532317075839       -0.05726043585492
H            5.62340540588820        0.24298018126352       -0.30018218832526
H            5.40125584057111       -1.46632861111596       -0.25807103782020
C            3.21952439074145        0.91739573053416        0.07381475464174
C            1.92477853693849        1.40866555382763        0.08658072832737
N            1.72297364321502        2.76487315942347        0.12819691092216
H            0.80622548949367        3.07611792176725        0.39931298335253
H            2.49227001005735        3.34302929382677        0.42405377561943
H            4.00747488132397        1.66039700180238        0.13606089531637
H            1.52625065350970       -2.89267351406813       -0.00997474808341
H           -1.51088148729387       -2.78504440206496        0.00036969741799
H           -4.93511571292611       -2.13967430254621        0.27167846711174
H           -3.65806071035634       -3.24948541048534        0.33629218989744
