35
 energy: -67.085657554968 gnorm: 0.000784868521 xtb: 6.6.1 (8d0f1dd)
N           -6.48290746077638       -0.28166624018563       -0.00339585115854
C           -5.33606725791379       -0.21649574002162       -0.00518259882121
C           -3.92287255032389       -0.15387004067598       -0.00438343283547
C           -3.41708054724272        1.14533513299194       -0.01385469147851
C           -2.08601561823844        1.59305226522618       -0.01114401922712
C           -1.87728095428266        2.98715671837439       -0.02023597954481
N           -1.67020768535848        4.11815169486149       -0.02762424854613
C           -1.00227240070715        0.73171831302862       -0.00200663225360
C           -1.03898249423067       -0.79164294966566       -0.00186692084504
N           -1.96344996270732       -1.70243124288694        0.00521794824534
C           -3.27144132719839       -1.42647354232047        0.00764593747826
N           -4.05081872825975       -2.53607453936559        0.01538808679937
H           -3.60052677700450       -3.43262416262267        0.04416665854579
H           -5.05293120593122       -2.47318244022338        0.04117744170645
C            0.36436462745266       -0.80821276846269       -0.00271560996520
C            0.40038392072182        0.67161794165422        0.00043285006967
C            1.49640286936314        1.54014380964065        0.00806000357289
N            1.29549899691923        2.87022245219008        0.01934313686274
H            2.07964664127654        3.50152615189711        0.02084615910115
H            0.36607402803187        3.25779474248645        0.01151015602159
C            2.83792100741208        1.06443720738265        0.00752292364853
C            3.80375490054099        2.08779869403499        0.01500346933557
N            4.58196868898808        2.93802040042085        0.02092062860439
C            3.37506868500869       -0.25653274316549        0.00000962986695
N            4.72700541344073       -0.32061301288202       -0.00161982891090
H            5.19101942590063       -1.21331970607366       -0.00608374592927
H            5.28076320780525        0.51915291430272        0.00226938841854
C            2.72131068876377       -1.51526565667045       -0.00529875243163
C            3.55178356576686       -2.64809369232631       -0.00847385301668
N            4.20578622226824       -3.59730013929567       -0.00954870539792
C            1.32942792690869       -1.80286971902534       -0.00736617028151
N            0.90703844644893       -3.08213648397560       -0.01561487903092
H           -0.08488926145618       -3.24976457595872       -0.01504612696535
H            1.55873936282650       -3.84761898297684       -0.01616216551614
H           -4.16990228841259        1.92611743118573       -0.02300782492020
