33
 energy: -58.831431142221 gnorm: 0.000488049343 xtb: 6.6.1 (8d0f1dd)
N           -5.45021943694324       -2.51684994625627       -0.00054339607230
C           -4.55663883878454       -1.78903446072671        0.00077420172301
C           -3.47321865640435       -0.89747974355148       -0.00060914748136
C           -2.20216352937725       -1.48577400601874        0.00009869312795
C           -1.02263263970272       -0.80459313730261       -0.00028703617489
C           -0.67515909633682        0.63994918207917       -0.00150616591560
C           -1.54463812482102        1.74237729518051       -0.00281528324032
N           -1.05531436933077        2.99845932310614       -0.00416011507498
H           -0.06627675491942        3.18203240331161       -0.00373883597613
H           -1.68388967940190        3.78212345545448       -0.00466354338903
C           -2.94273368712566        1.60688138670484       -0.00295447122087
C           -3.79171531232208        0.50024619404068       -0.00198011261354
N           -5.11954808756963        0.77987836077493       -0.00231320073596
H           -5.44408038450231        1.72960475633285       -0.00333381827770
H           -5.79369143602946        0.03349133945727       -0.00172862144924
H           -3.47113757322168        2.55549033531614       -0.00394023028919
C            0.69278683875886        0.32900667504124       -0.00076214084117
C            0.35926537813567       -1.13906479681274        0.00035279454260
C            1.13907591016835       -2.25098282794070        0.00091678666987
C            2.53858522922565       -2.22711404241720        0.00060802601976
C            3.40842930434942       -1.14060818849201        0.00046004248589
C            4.77024818563017       -1.53159174052532       -0.00048448302370
N            5.87128257342411       -1.85939609250794       -0.00207159921343
C            3.19503080480563        0.27019193893680        0.00074120482793
N            4.31388719371500        1.05165458759667        0.00500441164365
H            4.23519238164003        2.05269792744018       -0.00368354871380
H            5.22649458284577        0.63244017991909       -0.00283745832053
C            1.94593456440615        0.93860361003444       -0.00054753296087
C            1.99844922861919        2.34293683021368       -0.00213232123782
N            2.03337674383626        3.49490947969964       -0.00352805206862
H            3.02923420237050       -3.19321217993633        0.00040033375320
H            0.65967886773955       -3.22097776600784        0.00129944405726
H           -2.17075290877743       -2.56885681544448        0.00120262333995
