33
 energy: -58.031821501332 gnorm: 0.000811737553 xtb: 6.6.1 (8d0f1dd)
N           -5.29705370165063       -1.49899272824422        0.03036259510521
C           -4.34773722042188       -0.84497089008858        0.02319585855366
C           -3.18296517777932       -0.06046426053483        0.01446267247691
C           -3.42365961414618        1.32734660107955       -0.00806016286659
C           -2.61351989196707        2.43420204014712       -0.01981724554921
C           -1.19743690844790        2.47643483521509       -0.00703441541769
N           -0.56110804041919        3.66866896924191        0.00734131299209
H           -1.06974070233077        4.52794091717411       -0.09752760240440
H            0.44354870454830        3.66352610535351       -0.04780237158284
C           -0.42242995860546        1.33067874790395        0.01028808632907
C            0.95399294256783        1.06406011851211        0.00906535931396
N            2.02722990604547        1.79377461253903        0.00704068235652
C            3.25639419312332        1.25793870791799       -0.00191833198328
N            4.24608201696094        2.21134174058230       -0.07467484802538
H            3.95145613906529        3.15216115971413        0.12694260521218
H            5.17627754438257        1.96266470643516        0.21403098818167
C            3.66124229927696       -0.08276463846093       -0.00257539856016
C            2.96875451792312       -1.29252778185413        0.00398428480795
N            3.73192814663693       -2.43391301623696        0.06911599486415
H            3.28983790421168       -3.31894942252238       -0.11388206343290
H            4.71212757232089       -2.36700232819158       -0.14117397762772
C            1.55304228140809       -1.47986149889174        0.00662458980601
C            1.07555465688885       -2.79957817067814       -0.01139721834830
N            0.67337027042038       -3.87951425009426       -0.04056947169259
C            0.65227068738990       -0.43111344578635        0.01310683284925
C           -0.72044956706654       -0.13189760213091        0.01604403818504
C           -1.95027531227848       -0.78707576584360        0.02428901579867
N           -2.01986201110571       -2.13158810283090        0.04300438482240
H           -2.92013219407807       -2.58242526462668        0.04170915699750
H           -1.19112522851613       -2.70214123153499        0.03791507044063
H            4.74057178269364       -0.20372625132272       -0.00918125174684
H           -3.10889286400238        3.39662085682187       -0.03765951003439
H           -4.48565341604853        1.55565903993596       -0.01847327852067
