31
 energy: -54.581937890188 gnorm: 0.000622336351 xtb: 6.6.1 (8d0f1dd)
N           -1.46844876182011       -4.06739218477733        0.00364949538042
C           -1.47438393416921       -2.91922770581510       -0.00603746229479
C           -1.51265571408033       -1.50667624290557       -0.00806094929074
C           -0.34368968047086       -0.82914014967111       -0.00741277260223
C            0.01238964444942        0.60698632631996       -0.00750496639170
C           -0.85742137585053        1.72353506968900       -0.02354413752691
C           -0.28517343281107        3.00020991626768       -0.06746607615904
N            0.19209547201213        4.04982229926185       -0.11479805461019
C           -2.25488117967864        1.64333459791769       -0.00714391930698
N           -2.94943037105230        2.82420052166648        0.04743616228327
H           -2.45072192300481        3.68516397124522       -0.10242610993453
H           -3.93344584794191        2.82578707383718       -0.15152626164108
C           -3.07200651028564        0.47953379776859        0.01176787484313
C           -2.82050009573918       -0.86861402813087        0.00650047671404
N           -3.88248699068436       -1.72658547026277       -0.02376236198122
H           -4.81084052277246       -1.37215629539875        0.12101061890557
H           -3.72990319031479       -2.71063425642696        0.11478026057825
H           -4.13148847848224        0.71928928300559        0.03033530109016
C            1.36868215024774        0.29134169265910       -0.01299071963160
C            1.07507752228310       -1.15904961869520       -0.01212243991002
C            1.85046148146281       -2.25696206742464       -0.01061176344294
C            3.27618821477479       -2.18297599269429       -0.04003175718803
C            4.05605585533699       -1.06314035407730       -0.05291560148338
N            3.81704995150543        0.26376929158344        0.01154299049172
C            2.67114567148300        0.89665287199251        0.04259830853772
N            2.76799198077251        2.23429545752541        0.15796246604756
H            1.96980644488082        2.84612169089142        0.12201434604217
H            3.69466216312922        2.62463202996154        0.18301862497033
H            5.12883517395121       -1.23826612204918       -0.10804087395510
H            3.79629227014430       -3.13038885533179       -0.07082433234781
H            1.39210223502458       -3.23686803153274       -0.00501816238612
