25
 energy: -46.667621439341 gnorm: 0.000756417536 xtb: 6.6.1 (8d0f1dd)
N            4.91814052700845       -0.00420262534558       -0.47476767810664
C            3.67570777728922       -0.00043156649818        0.04516139991861
N            3.21786544241435       -1.22591130767532        0.33317437565459
C            1.94589326859324       -1.58086444309863        0.36115456674060
C            0.88909613888680       -0.75517156466737        0.05876509372754
C            0.88880719889320        0.75574084708945        0.04614780568018
C            1.94632541674469        1.58698046463462        0.33176825654193
N            3.21766861958978        1.23100311907587        0.30974749632264
H            1.77101906333198        2.63013671572792        0.57420743585416
C           -0.51547398060408        0.76527453027298        0.04411786356364
N           -1.47647773425579        1.63700339617418       -0.04037609718611
C           -2.75463309028133        1.20931513803802       -0.06271511216935
N           -3.65548203881885        2.21802590203048       -0.06286756909383
H           -3.32015694290265        3.16159327130808       -0.12487488197314
H           -4.63033157092855        2.00444947012414       -0.16260445818604
N           -3.29628659796398       -0.00046972067478       -0.09199024107668
C           -2.75352054018880       -1.20993948709273       -0.07283034884177
N           -3.65135460356508       -2.21891540225368       -0.12453949093718
H           -4.63178416198360       -2.00739054695595       -0.14117172460960
H           -3.31878384389413       -3.16480382372398       -0.10137978987580
N           -1.47519401267893       -1.63722667944263       -0.03367785519767
C           -0.51556555712908       -0.76454030764202        0.05312158157827
H            1.76998955559690       -2.61970134622624        0.62112676305915
H            5.38496554028238        0.87032565129570       -0.63539637831396
H            5.38774254746387       -0.87994058937447       -0.62012243567337
