27
 energy: -47.700575421453 gnorm: 0.000313151398 xtb: 6.6.1 (8d0f1dd)
N            6.02423033976088        0.92564867087779        0.00072341575873
C            4.92112489998211        0.61221426212269        0.00030733034338
C            3.55351508591849        0.23246164919606       -0.00041755150630
C            2.66457181341351        1.35268443902927        0.00095263168738
N            1.35556422268235        1.40456893099981        0.00084238316158
C            0.61449248343491        0.32019400805236       -0.00068317577779
C            0.90859438570385       -1.16881470029622       -0.00260659419407
C            2.09049617979188       -1.82212150180998       -0.00332590608233
C            3.32956933776353       -1.13444586956346       -0.00225886465654
H            4.21793744191379       -1.75503800984564       -0.00299027638903
H            2.12123600464252       -2.90433402240379       -0.00473295065728
C           -0.50898498490130       -1.40364984109985       -0.00308704943623
C           -0.75482418811540        0.05113963329769       -0.00119212289720
C           -1.92858647253327        0.81497074359798       -0.00032769286753
N           -1.80159053061295        2.14901466185374        0.00142121247678
H           -2.60954327298250        2.74980808842794        0.00207142471642
H           -0.87292099172151        2.54052548914574        0.00203713086689
C           -3.21056969699885        0.20403383943812       -0.00129225903273
C           -4.30686197634739        1.08732594027158       -0.00039398801920
N           -5.18126898770415        1.83487902154603        0.00067886832512
C           -3.53273137883004       -1.16851899596325       -0.00312761913768
C           -2.77090490691244       -2.31772882865735       -0.00454252299222
C           -1.37069994408554       -2.45646429327817       -0.00457044139466
H           -0.96859913064897       -3.46127427720792       -0.00587229940239
H           -3.33043762531439       -3.24367946491598       -0.00584969834794
H           -4.60475510299763       -1.34100309450210       -0.00350271523022
H            3.14242822359851        2.32674196028693        0.00230207048505
