30
 energy: -50.863918411565 gnorm: 0.000818256724 xtb: 6.6.1 (8d0f1dd)
N            5.61523900140714        0.63664492435320       -0.01487753000525
C            4.53909635414700        0.22517399004902       -0.00712485163607
C            3.21275705353961       -0.23727317224820        0.00027044312457
C            2.21605733031084        0.76528181556034       -0.00064713645945
N            2.59199887017019        2.06249776142417       -0.00434094234386
H            1.89863059239428        2.78647254282041       -0.02051325211363
H            3.56812839078614        2.30653983950323       -0.01823136052612
C            0.84901043862213        0.45550627562497        0.00414528176369
C            0.16769698280172       -0.86024701736734        0.00321578435403
C            0.61316538524400       -2.13397891897577        0.00715154748175
C            1.98936944650865       -2.48277813357174        0.01046587848964
C            3.07456012088682       -1.65279579287442        0.00685320316303
H            4.03672546711021       -2.15593886387007        0.00809469671698
H            2.20006002070333       -3.54346125223193        0.01496271286661
H           -0.10696751191520       -2.94180688564134        0.00768815044971
C           -1.10501689332336       -0.17196339561513       -0.00273733607898
C           -0.38247987712139        1.12859605292981        0.00305044414516
C           -0.91310953857651        2.41064789921900        0.01628973217427
C           -2.26214618551135        2.69278613722780        0.01530847641692
C           -3.37462065827202        1.83300476927102       -0.00449421430086
C           -3.50437284113744        0.45691516734917       -0.02594484435194
N           -4.76712707748708       -0.07198330367688       -0.11041551357786
H           -5.55476185052110        0.53114114775030        0.04711557084006
H           -4.89879114406192       -1.05494019802393        0.05705203623548
C           -2.42135447555221       -0.50162596002734       -0.01598076377491
C           -2.76276448497847       -1.87422914003075       -0.00883543436282
N           -3.05980570056229       -2.98314888784571        0.01078886151717
H           -4.32687212905414        2.35377457203159       -0.00891742026346
H           -2.52126289771950        3.74391925854324        0.03106354037622
H           -0.23431817573802        3.25508922264354        0.03139768627995
