31
 energy: -54.590745270308 gnorm: 0.000713774943 xtb: 6.6.1 (8d0f1dd)
N           -5.66361386293745       -2.33505350845733       -0.00767115950840
C           -4.79654208813244       -1.57899846087892       -0.00708283877407
C           -3.72519248789425       -0.66642214274209       -0.00581107180828
C           -2.40962109288278       -1.27277698041601        0.00076836530022
C           -1.28641822390794       -0.54925737621235       -0.00137438479350
C           -1.02954511164207        0.89911286255737       -0.00830221952481
C           -1.92420829804709        2.00527595515269       -0.01051825096890
N           -1.34012077866131        3.22346885756963       -0.02332134586253
H           -1.88658416183298        4.06453609065085        0.02464592196668
H           -0.33588547209161        3.26719861922923        0.01660267115410
C           -3.29783303050693        1.85412356670872       -0.00914149923048
C           -4.06182230319197        0.66954484973501       -0.00943191490846
H           -5.13264761760544        0.85033148467289       -0.01168688783634
H           -3.87385617820227        2.77156682184681       -0.00899591533627
C            0.34217099605617        0.71064580784231        0.00090595502192
N            1.41360901225172        1.51240900269424        0.00467471925408
C            2.63340695860492        1.05769477517723        0.01753792664876
N            3.59236477834932        2.02323754711661        0.08102473449076
H            4.56122210800928        1.80473657029829       -0.06918511588482
H            3.28562469862043        2.97465906188223       -0.01579818892327
C            3.13912321366651       -0.31954766484090        0.00482548193088
C            4.54320544413494       -0.40557064807518       -0.01809484270994
N            5.69309946845141       -0.47907658695290       -0.04802923723301
C            2.48054626505105       -1.54670341288089        0.00586433584556
N            3.22243390758721       -2.67969765172859        0.00016793378895
H            4.22733070958510       -2.63509377901333       -0.00318198800395
H            2.77567373110022       -3.57823683394422       -0.00304146475058
C            1.05232995341317       -1.76550117488851        0.00903737280213
C            0.17008788981175       -0.76196709177737        0.00602671620848
H            0.72034438700174       -2.79632001640710        0.00964060487760
H           -2.37354237105840       -2.35423674771850        0.00777862396751
