30
 energy: -50.869369465159 gnorm: 0.000616599412 xtb: 6.6.1 (8d0f1dd)
N           -6.22693830586587       -0.82768964899015        0.00177064064823
C           -5.09727897220790       -0.62793432088355        0.00153114905316
C           -3.69945182224255       -0.37903874332498        0.00142053444954
C           -2.91666884003961       -1.54206956702343       -0.00491612858280
C           -1.52844742807718       -1.66031241310996       -0.00657570245831
C           -0.65698772519542       -0.60527965960359       -0.00387770257605
C           -0.92292659914420        0.87905289007084        0.00233299717285
C           -2.10104074725549        1.56937969587629        0.01027828465252
C           -3.36668759022548        0.97948768257596        0.00871274968156
H           -4.21120372457152        1.65807556648517        0.01445886178089
H           -2.08163469542804        2.65359688142097        0.02029988834140
C            0.47624779507236        1.11176708997672        0.00223239225794
C            0.73382937605275       -0.34064177897207       -0.00266894900159
C            1.91174459628072       -1.07778400913714       -0.00445381161702
N            1.86063345920661       -2.42779537808552       -0.01418490474805
H            0.97517567127246       -2.89820973772806       -0.01643877955233
H            2.71000899068747       -2.96676178458268       -0.01156276554302
C            3.19168637099982       -0.45127075112539        0.00300351253250
C            4.29900285733038       -1.31757978075519        0.00503339635176
N            5.19079059388663       -2.04598698764732        0.00715270957335
C            3.50614820078586        0.91799425833327        0.00808209362647
C            2.74323029757345        2.05913692980034        0.00617267305728
C            1.33432419218530        2.20155889378839        0.00273706907554
N            0.82897570588158        3.45803065073902        0.01667125865757
H            1.44134716584883        4.25164945077153       -0.04004319412910
H           -0.16118771399207        3.60233252626131       -0.04748598440357
H            3.29312657696823        2.99240038869384        0.00870074542606
H            4.57674248156470        1.09829209945137        0.01216052886199
H           -1.13722717493598       -2.67163685830822       -0.01024548275226
H           -3.47700202451572       -2.46921991596750       -0.00850383213648
