29
 energy: -51.136077472781 gnorm: 0.000623082151 xtb: 6.6.1 (8d0f1dd)
N            1.27194557693304        4.04828065923374       -0.01046412631314
C            0.49973086798956        3.19463913963203       -0.00566894812683
C           -0.40852728055196        2.12065851919759        0.00256193121712
C            0.10718056141695        0.81270653594700        0.00821524818809
C           -0.66202008553894       -0.46679585890507        0.01087655352361
C            0.58837365729052       -1.19092254334749        0.00641675455667
C            1.30852266393069        0.10837318421692        0.00434160084406
C            2.71062254898142        0.30656458780003        0.00148202975471
N            3.21782822338343        1.55140326542465        0.00193678659342
H            4.21468219819015        1.68241351035889       -0.00067733907726
H            2.62634689185703        2.36727461785608        0.00195950479616
C            3.59037447098043       -0.78182744006413       -0.00207523631103
C            3.33919410817009       -2.16208387557146       -0.00417053332490
N            2.27366777011905       -2.92135812158945        0.00018506103847
C            1.00125684659483       -2.48074008016656        0.00665595058004
H            0.26591747663296       -3.27918300953601        0.01134117438974
H            4.24701113985481       -2.76426795435395       -0.01056325020039
H            4.64121753257003       -0.51637436553079       -0.00520480992755
C           -1.98584700252223       -0.75801045781448        0.01312210608811
C           -2.37083991186545       -2.11968561544366        0.00160093784341
N           -2.71712456452037       -3.21376578800501       -0.01908228865272
C           -3.04668300640405        0.22937949375326        0.01627376857142
N           -4.31785806232336       -0.26827135238486        0.07068661576996
H           -4.47461445947220       -1.25259344687708       -0.06241999756443
H           -5.09586970672127        0.35387965188491       -0.05687792029562
C           -2.88755940987193        1.60384573377664        0.00669171632318
C           -1.76033171879907        2.43528068561778        0.00157596175934
H           -1.98450461415432        3.49522689851395       -0.00554657447563
H           -3.82689065864980        2.14696365117650        0.00676425203197
