30
 energy: -54.891908156383 gnorm: 0.000914231321 xtb: 6.6.1 (8d0f1dd)
N            4.61732099074648        2.18764115661072        1.34139233495894
C            4.12249285811969        1.23283770323707        0.93298468000564
C            3.52094719183948        0.07381410182217        0.45098572764502
C            4.11287738493753       -1.22131548007082        0.35250858560828
N            3.31999279182061       -2.11933760196991       -0.16872373777144
C            2.11459279659401       -1.50779868090848       -0.39806943909471
C            2.25051573839187       -0.04852994224477       -0.11929455776113
N            1.47616010581095        0.93492598641913       -0.48232175327454
C            0.24824308335588        1.18287615267872       -0.77292877156183
N            0.04289720059425        2.32641471679482       -1.48957225613053
H            0.85982980674573        2.75145666574389       -1.89809252203774
H           -0.83748558646205        2.45858548051200       -1.95700017242311
C           -0.93142657888585        0.50163581338915       -0.30161354919972
C           -2.13155077963927        1.14340987300594       -0.03059013946025
C           -3.15060702122161        0.15134458448439        0.21092873597450
C           -4.46986063933607        0.43173521798649        0.55730569694401
N           -5.55369224897416        0.67065329679866        0.86198485564017
C           -2.58908199927319       -1.09929811768232        0.03124240338762
N           -3.25092991025732       -2.27084087938652        0.14013178871892
H           -4.18722110382161       -2.25334599441497        0.50798675087826
H           -2.75012343265008       -3.14025805234673        0.18752430786154
C           -1.16297885245985       -0.93379674701756       -0.26899692880222
C           -0.38193844091661       -2.03506114502715       -0.49649467942239
C            1.00798192577925       -2.28365879527344       -0.57638568547993
H            1.25932942122210       -3.33578555900667       -0.65745078005017
H           -0.94512723251356       -2.96167405501167       -0.54854361049970
N           -2.38705186656214        2.47821672526286        0.00514838306021
H           -1.60325462325417        3.10246337940315        0.11052617825587
H           -3.24493288493762        2.76088140009186        0.45283286915561
H            5.11544387210621       -1.47300470608087        0.65225087317510
