36
 energy: -66.020793877431 gnorm: 0.000622532440 xtb: 6.6.1 (8d0f1dd)
N            3.72717366321581        3.45770353784065       -1.06690779959053
C            3.37609184970288        2.38690816819796       -0.82829447484925
C            3.00441593982346        1.07388934240818       -0.56532602305690
C            3.82902339169999       -0.06146201752131       -0.77005618874461
C            3.13555889866577       -1.21831679191038       -0.35050034385795
C            1.86087648210430       -0.86809479234514        0.05878695594960
C            1.80150946723297        0.63071096874955        0.02415594234822
N            0.98512625475361        1.41905170127716        0.63427465414832
C           -0.24849087875564        1.42617564004054        1.06939677475482
N           -0.50418407765317        2.35804542905259        2.02176215718662
H            0.27556188258555        2.84306367739280        2.43216210702790
H           -1.39319695537214        2.36063479159480        2.48939930374989
C           -1.34077385600394        0.75584290109911        0.47008803485746
C           -2.59312639893064        1.35175469953082        0.27535955500701
C           -3.44396193646846        0.40462566601977       -0.33976042563802
C           -4.74448597145849        0.63791946697762       -0.77483475665061
N           -5.81289474575680        0.83367517285740       -1.15796765858463
C           -2.74589773472791       -0.81112405116675       -0.45792685867605
N           -3.32069596782716       -1.96031284542532       -0.97710360742828
H           -2.69882882928769       -2.54895652577182       -1.51403612912313
H           -4.19385875979799       -1.77876136327188       -1.45473433860584
C           -1.42630641704491       -0.63989515483602        0.02838147612687
C           -0.57076104897588       -1.73029431314882        0.30200834130962
N           -1.18614346870404       -2.94237618368823        0.38978604253347
H           -2.18289643156675       -2.97512739078542        0.52110971978146
H           -0.64229212757754       -3.75847565939740        0.61592369834916
C            0.85278948410512       -1.78971102105635        0.39124137785204
C            1.37551526493288       -3.07329926459922        0.65961547569143
N            1.80169831079170       -4.10950586188651        0.92596672068004
N           -2.97283534171914        2.63582547358569        0.60176141631474
H           -2.23072416679960        3.32043879480877        0.60962040075467
H           -3.80553967673675        2.94999429262213        0.12361069964287
H            3.52258088686427       -2.21763908314978       -0.42085291324612
N            5.06008238685134       -0.03077483265841       -1.29219802243204
H            5.61040303029424       -0.86920557059022       -1.35306128619330
H            5.46212378333072        0.84621457096595       -1.57731808759930
