32
 energy: -53.520245191582 gnorm: 0.000345054639 xtb: 6.6.1 (8d0f1dd)
N            2.12022643903894        3.40902199764216       -0.60228228519985
C            1.54562925640408        2.43258675206152       -0.38802457991402
C            0.83325748730773        1.23934291521695       -0.15708721623946
C           -0.55601957129884        1.36751459812649       -0.14526991102204
N           -1.03371128774103        2.64534611090188       -0.31507466762982
H           -0.37822420275860        3.35196635726695       -0.61049517128731
H           -1.98486935819746        2.75158577812282       -0.62369592042212
C           -1.57820331236443        0.40445201899845        0.12343109713321
C           -1.69665095092958       -0.99124453879161       -0.30239885984765
C           -0.81335974009384       -1.93973916585223       -0.73294277124062
C            0.58360894936726       -2.08861356934881       -0.67074323396859
C            1.60149100390228       -1.30366609214307       -0.20822492678545
N            2.81231477910907       -1.91046690584984       -0.01959838889029
C            3.65016295934101       -0.97473803106359        0.38694716494305
C            3.03380092847575        0.31943160098723        0.43932461522528
C            1.72292496696107        0.14510764203058        0.08069208970383
H            3.52578390890371        1.23283030672480        0.71337686077407
N            4.92034000010678       -1.24540790708043        0.74026122095319
H            5.56974976020719       -0.49187591550090        0.87730419964706
H            5.27328061986230       -2.16883666922504        0.56026247254605
H            0.93234128818235       -3.08282202428256       -0.92815139646611
H           -1.29000216579770       -2.84728839882531       -1.09150122961877
C           -3.09930514043920       -1.35427696662130       -0.10985728493113
C           -3.74202011149037       -0.31106235868449        0.49380567566403
C           -2.83303699530307        0.77510044972529        0.61532916817369
N           -3.21514245533408        1.98272815390458        1.15594684436008
H           -4.03628490781262        1.93795867233794        1.73981687842307
H           -2.47262410474254        2.55461994440610        1.52930524570175
H           -4.76658629094970       -0.29002002827830        0.81809102113568
N           -3.67800224460090       -2.54826105561602       -0.46025247457286
H           -4.54948352219156       -2.75323413518898        0.00206357962813
H           -3.07282494382658       -3.34556249150144       -0.56909467397320
