30
 energy: -54.891617669025 gnorm: 0.000611170347 xtb: 6.6.1 (8d0f1dd)
N           -0.65919666318950       -4.15888889052907        0.60537419972043
C           -0.47315608264334       -3.03001279193847        0.51805903264072
C           -0.14959407113103       -1.65154869196042        0.41552612600915
C           -1.25040831115283       -0.81796725271380        0.42578480171841
N           -2.48662841241976       -1.35618235522728        0.37574874684579
C           -3.31634880886166       -0.40562736612376       -0.03689130190310
N           -4.61961224023269       -0.62585301093065       -0.22114360792029
H           -5.21102487167948        0.09763078520530       -0.59066643266925
H           -4.99283724502650       -1.53470079890908       -0.00988784164641
C           -2.65000040355715        0.85259185505041       -0.25060355552636
C           -3.27596292401141        2.01335530922872       -0.68267974189543
N           -3.84494843332797        2.94092248097384       -1.06065448639741
C           -1.32789856497354        0.66075481496350        0.16721567176584
N           -0.47996119226456        1.61507687663431        0.39492600625261
C            0.78463627736960        1.79727725318391        0.59459594569062
C            1.90176503894839        1.06956364821566        0.19433393464698
C            3.19025346447850        1.63734422027003        0.10239176328840
C            4.12556540778489        0.63295514511124       -0.22869719520579
C            3.47269720794205       -0.57661938011375       -0.30591688672393
N            4.06093440244706       -1.77308518739047       -0.55416920598695
H            5.01411589003131       -1.76755978416609       -0.87332497471385
H            3.49759690595624       -2.55631085051824       -0.83660891913471
C            2.05558094070251       -0.37515163014002       -0.03082810898705
C            1.23884784075523       -1.44667499467027        0.16782989757509
H            1.74687556632665       -2.40517307847580        0.09333767138530
H            5.17814597210683        0.79354223318827       -0.37298596713931
N            3.51475456361639        2.93678534067881        0.29285774135622
H            4.43048441019377        3.24819154572206        0.02074002356866
H            2.78809477379425        3.62878430889581        0.34113126158670
H            0.98613875572535        2.75849956088400        1.06866130389938
