36
 energy: -61.199944605415 gnorm: 0.000736670019 xtb: 6.6.1 (8d0f1dd)
N            2.94466249469360        3.32459893488960       -0.71592464819231
C            2.28906850036655        2.39678812623746       -0.52222860332100
C            1.46433268324325        1.27779573664704       -0.29686383041209
C            2.19034664282019        0.14851013845470        0.18876942814057
C            1.97690055927587       -1.30095193996310       -0.07925177479820
C            0.98853961880029       -1.97726568413087       -0.74688986147532
C           -0.38080269215995       -1.75196401084900       -1.00991998866039
N           -0.99096949707637       -2.77473834735918       -1.69296546076985
H           -0.40460568428665       -3.44088450099030       -2.16679709193916
H           -1.89521198729676       -2.59614126567671       -2.09671101781009
C           -1.22896091529697       -0.77475270561510       -0.47084368452301
C           -0.99832205975401        0.63086046943144       -0.15429373735706
C           -2.20312125168805        1.15410169169438        0.30956227250689
C           -3.17815711366950        0.11718508192449        0.34105260419260
C           -4.46650131025497        0.23434643174515        0.84858408681355
N           -5.52663000442883        0.32450940400633        1.29153733112089
C           -2.60049191326861       -1.04071359281603       -0.18376667380528
N           -3.27755296272881       -2.24216489911956       -0.32556220366319
H           -4.14650166132018       -2.25959462558482        0.19285106732764
H           -2.71559741473762       -3.06832519486756       -0.17111180273695
N           -2.48464594912004        2.46128917287518        0.69076767664855
H           -3.33801513501040        2.53719891976795        1.22795939606318
H           -1.71488894736141        2.95394571913601        1.12183249259210
C            0.10029934867595        1.48872905349360       -0.49766825146623
N           -0.27005688970174        2.70212569140102       -0.98362429115101
H            0.42178473016784        3.41287990025579       -1.15238271492638
H           -1.24475856682409        2.91551233365641       -1.10078435582358
H            1.28878576534420       -2.98595739141659       -1.02515518591174
C            3.13963605153582       -1.96302177144888        0.37598517372567
C            3.99215172895997       -1.03835554774522        0.94568329272237
C            3.41280200703649        0.26538653743405        0.78900275454680
H            3.88688078990585        1.18046888475262        1.09216745549152
N            5.19070571026530       -1.26642658518853        1.52267206318612
H            5.49696861956850       -2.20821712079304        1.68909939583907
H            5.66532145444102       -0.51694715083753        1.99308391010584
H            3.29288858218626       -3.02536666520080        0.33734535851968
