26
 energy: -43.190104111958 gnorm: 0.000469523615 xtb: 6.6.1 (8d0f1dd)
N           -1.74877212270770       -3.55312731150263        0.12496642083675
C           -1.37185285692671       -2.46842404926033        0.08981463330334
C           -0.82687627172982       -1.15926639588221        0.04897910049917
C            0.54084752838176       -1.18838093534706        0.05144530864444
C            1.56684940518393       -0.21947928257842        0.01995162278250
C            1.57865619512624        1.23278542714303        0.03106610302779
C            0.66430872161533        2.23861556908412        0.04360265878989
C           -0.75439670147971        2.27949863480094        0.02738803129489
C           -1.74631658148873        1.35139282157826        0.00309257075098
C           -3.12602825121753        1.82109196783541       -0.03794528115861
C           -3.95590487837757        0.76023690815748       -0.06330193167738
C           -3.15691572371914       -0.43851674155567       -0.03257794935809
C           -1.82752623629187       -0.12263919409352        0.00642496599806
H           -3.56668419525970       -1.43218395162242       -0.04099479249830
H           -5.02976991156813        0.77108786184394       -0.09946383451911
H           -3.39367745135570        2.86127852487358       -0.05020422857669
H           -1.12841316383263        3.29974705960668        0.02513668753637
H            1.11043899486552        3.22879912254115        0.05726808656712
C            3.00176431645005        1.56422395679851        0.01576910107380
N            3.76019075150251        0.52163461238783       -0.01010274059853
C            2.91681635415806       -0.57964056067999       -0.00678544320094
N            3.49110744843817       -1.80137526851204        0.00565786324537
H            2.94902152562061       -2.62350368606302       -0.19216960939063
H            4.48361129420093       -1.83292293968590       -0.14935227106532
H            3.40875023191230        2.55927247313444        0.01539316127982
H            0.93812657379941       -2.19994120170205        0.08769275691354
