28
 energy: -46.655966702914 gnorm: 0.000569033655 xtb: 6.6.1 (8d0f1dd)
N            4.31204399495679        2.14572397593119        0.26595221799931
C            3.50417714335008        1.32799386521464        0.19036828285175
C            2.57871184968510        0.29746096823813        0.09466871165544
C            2.91871101673038       -1.08759959709523       -0.06927417546863
N            1.84042738243718       -1.85494795982583       -0.12179840220938
C            0.75021425378409       -1.04711246549021       -0.01351198870490
C            1.18004454311946        0.36056627014410        0.11962879568884
C            0.49380368061856        1.56389760795773        0.26718022218257
C           -0.83537023498518        1.91351363590112        0.21812835875998
C           -2.05182644879554        1.26024891000870        0.01494529855907
C           -3.20416899325687        2.05417721962676       -0.12974191534820
C           -4.30785070366700        1.24566066175211       -0.33812676795488
C           -3.89280668416057       -0.07921435036758       -0.28402160913185
C           -2.50311156311488       -0.13889592697995       -0.06983758014974
C           -1.82965651654225       -1.36780835692998        0.07310096656519
N           -2.61391546172342       -2.46845247408776        0.21485199879548
H           -2.19573901386281       -3.37813283937242        0.29022520770036
H           -3.60630076363912       -2.38283487234660        0.32337392603824
C           -0.45670953646153       -1.69529001014066        0.02269352492509
H           -0.28784273941023       -2.76914080968207       -0.00547899270533
H           -4.55693100861627       -0.90987266648633       -0.44565225572380
H           -5.31543881219692        1.57815354205170       -0.51108948097991
H           -3.20836264661960        3.12866228528805       -0.10673125697080
H           -0.98313466811849        2.98533204769836        0.31927917545397
H            1.16858588807526        2.40381255884579        0.40705404461371
N            4.16347380356726       -1.57384604581777       -0.15133482717633
H            4.29700883783640       -2.56005056705637       -0.28329475973725
H            4.95337754130943       -0.95437514907918       -0.12047160242832
