31
 energy: -49.787896108109 gnorm: 0.000898668170 xtb: 6.6.1 (8d0f1dd)
N           -3.72137781666187       -2.18500769202213       -0.37936609637173
C           -2.76850510960909       -1.55778990230370       -0.22193030750664
C           -1.58050062658248       -0.81547083387845       -0.05042130151802
C           -1.83151098192757        0.55074486695798        0.26147539807766
C           -1.04602103438375        1.76081220984558       -0.10080186909388
C            0.17760135618272        1.95381385431681       -0.66189834172027
C            1.38332259820815        1.19876560884123       -0.74545939791878
N            2.38303108289772        1.83184015112131       -1.40747770917776
H            2.23859026592275        2.73681296477514       -1.81832877268106
H            3.28387519364312        1.38791385832769       -1.47991073782740
C            1.71626402032301        0.01285762720926       -0.08600835333061
C            3.05902711597727       -0.28650792912305        0.31811695748957
C            3.08976022149053       -1.54872904620664        0.86639390567195
C            1.81042593632925       -2.11209107742820        0.74967159179123
C            0.93171707318850       -1.18162884644303        0.21093250444809
C           -0.40195329271458       -1.56119038619498       -0.14270018194366
N           -0.53109428580574       -2.86565347963455       -0.51169911558544
H           -1.44349203579716       -3.28362543001786       -0.58129988732491
H            0.28001772642704       -3.45611937562842       -0.50736159389114
H            1.55082415326001       -3.09141197934267        1.11129379813523
H            3.94796232869185       -2.02627254325228        1.30390152703410
N            4.16317077735990        0.58386506308667        0.22574949008159
H            4.95413235073994        0.20274983379610        0.73136160820657
H            3.95798352149554        1.51568946018024        0.56954775375223
H            0.32613620183276        2.97516078897950       -1.00974655118660
C           -1.90730274976609        2.87531564159321        0.16435238939060
C           -3.07148716025109        2.41733373195695        0.70387111977183
C           -3.04461590161090        0.99557571565751        0.72675336259546
H           -3.85436261016242        0.37196283421010        1.05752935999560
H           -3.89275773941006        3.01766210401429        1.05316168687165
H           -1.61872529178538        3.90095587350637        0.02517107056426
