30
 energy: -50.082015235246 gnorm: 0.000830868366 xtb: 6.6.1 (8d0f1dd)
N           -1.40102300372888       -3.42459496612972        0.17795892555691
C           -1.02881746335399       -2.33856424320357        0.10973823903329
C           -0.48666187408899       -1.03213498229537       -0.00751136281052
C           -1.49945291046329       -0.07851442038602        0.07348816484483
N           -2.71344917659792       -0.54499839165860        0.39512187863184
C           -3.58195033818979        0.47516623181640        0.26994837503004
C           -2.94805391175717        1.65121785874765       -0.17452368318301
C           -1.59301352288551        1.36345519975688       -0.28672635607779
C           -0.65471114737555        2.30207457871412       -0.70762131192676
C            0.72299419773460        2.34247889568627       -0.69327392373619
C            1.73976602022400        1.49225953687017       -0.27251280453223
C            3.04077623768974        2.02053581681959       -0.14059961461640
C            3.89527582852162        1.04889817740272        0.33417838526638
C            3.18173492309183       -0.15160239444168        0.44596033051217
N            3.75729807966902       -1.34704585895659        0.89045892934619
H            4.66835302276437       -1.19037191082100        1.30225458269398
H            3.16736077903098       -1.88244382962929        1.51512214269097
C            1.83630606635770        0.06429905231954        0.06603026794315
C            0.93577030116541       -1.00453484104907       -0.11971080761166
N            1.50357168217777       -2.21415894896101       -0.33428094873755
H            2.50023954971714       -2.27967589475099       -0.45541132717624
H            0.93104724886373       -3.03650485707576       -0.42459506968290
H            4.93504809373417        1.17306810026339        0.57951046214927
H            3.30030717231962        3.04516652863911       -0.33460080254065
H            1.11784808411286        3.30475287228890       -1.00846549174327
H           -1.11981958672452        3.22620327848719       -1.03772118197271
H           -3.42214422918626        2.59590149809791       -0.35707323572187
N           -4.87819224094623        0.30461859538281        0.56992657718472
H           -5.18660274771795       -0.61524920956214        0.83009696963329
H           -5.54858244966094        1.03094162722845        0.39841547875473
