31
 energy: -59.407565449636 gnorm: 0.000749547084 xtb: 6.6.1 (8d0f1dd)
N           -3.49958132616442       -3.80773233137049       -0.82606684057008
C           -3.27458775624565       -2.68977574802789       -0.68560752094289
C           -2.98965208539908       -1.33545620474209       -0.51713244281075
C           -3.83004375252950       -0.23894423402072       -0.80773414827043
N           -3.29183525177419        0.93023577147576       -0.51031237253557
C           -2.04452613200170        0.69680519316994       -0.04570316435645
C           -1.83285911716287       -0.78644551292789        0.06560130071160
N           -0.92862572407575       -1.45198209391350        0.70921832814380
C            0.30078281988313       -1.31248087269167        1.09723165684271
N            0.70535068944109       -2.12761490481896        2.09202377354195
H            0.03284193422697       -2.72681716555466        2.53980788025447
H            1.64960223327226       -2.08522201932597        2.43127383615526
C            1.29762631565719       -0.51776605210968        0.43832989633289
C            2.59354573944297       -0.96347646015334        0.19841473148090
C            3.34826333486825        0.13168300155178       -0.32373118740213
C            4.67849881312353        0.04532184485319       -0.73931816069416
N            5.77047179547168       -0.06645171271935       -1.08060270307432
C            2.53938322424704        1.25640657199256       -0.32444649141067
C            1.23802370890306        0.90043953510392        0.10637978432058
C            0.24158955377667        1.88131479380926        0.27205091706626
N            0.67869016641923        3.14605403083533        0.46601769263157
H            0.04200491865161        3.92402116437772        0.39824870029346
H            1.66532149740713        3.33001667411617        0.50856767642843
C           -1.18730437125726        1.76304686056989        0.13070910355105
C           -1.86656580158908        3.00564086024505       -0.01189654455985
N           -2.36821041424677        4.03486271077896       -0.08676493872726
H            2.84439562951017        2.21092237430737       -0.71314112736442
N            3.11464553994825       -2.21525375577363        0.43236781241458
H            2.46105376832632       -2.98347896958230        0.39890202026539
H            3.98339150173733       -2.40180118240405       -0.04777675457408
H           -4.82119794076197       -0.29248693645349       -1.22210501474333
