29
 energy: -55.158719330811 gnorm: 0.000830215980 xtb: 6.6.1 (8d0f1dd)
N            4.61515618616381        2.28172395156779        1.14190936198587
C            3.95374800546769        1.41283244978611        0.78217457698526
C            3.15489857756056        0.34734076066172        0.37356789529772
C            3.55036574722974       -1.00185103964827        0.21463458168634
N            2.58039059787753       -1.78613622195018       -0.20406447816425
C            1.46135619551873       -1.02845433870034       -0.31310900454219
C            1.83078077986795        0.41694387415129       -0.10759940606833
N            1.19478604403535        1.49271283627318       -0.41145209751031
C           -0.00039187365546        1.86422290421505       -0.75217755114290
C           -1.22588473105376        1.37157395577243       -0.33704462989448
C           -2.39760345065421        2.17142741729683       -0.28938816284252
N           -3.44801441503116        1.50509011980344        0.22266953041803
C           -3.03880746342494        0.26428236469469        0.46424673271146
N           -3.92804068280512       -0.63538424004709        0.99485002623343
H           -3.56398275788819       -1.25253597771683        1.70802321743073
H           -4.79584267037740       -0.18482697508645        1.25501090949859
C           -1.66149388214040        0.03932337163856        0.11369069461014
C           -1.13505755295242       -1.23587510661939       -0.07364497003904
N           -2.00014230440303       -2.28014931494415        0.03267245830452
H           -1.66765094633853       -3.20901511926689       -0.17224462213975
H           -2.98771163393654       -2.09874910696224       -0.05938007071546
C            0.24063528341229       -1.66243237294283       -0.29058133535803
C            0.40904792117393       -3.07298110672012       -0.37076099070778
N            0.49104059735447       -4.21401229268159       -0.47327249819916
N           -2.53579263145146        3.46004507353100       -0.65683439607751
H           -1.72551061931712        4.02701662366976       -0.82852033373357
H           -3.39050899016988        3.91715647930500       -0.39033977069217
H           -0.00637281843456        2.79397182602211       -1.31724105353934
H            4.53568919877609       -1.39568781599964        0.39148832510680
