26
 energy: -42.392412578545 gnorm: 0.000336546570 xtb: 6.6.1 (8d0f1dd)
N            1.13426045308449        2.87522692104835       -0.85645888941756
C            0.56496117520397        1.72047279006243       -0.41991352483147
C           -0.82905878821682        1.73892790602262       -0.33885566874840
C           -1.79389100896655        0.80641132279980       -0.00141585430657
C           -3.12730298194277        1.15594471023628        0.23830759715900
C           -3.83114148584391       -0.02937911191006        0.41960133800753
N           -3.07663328925737       -1.11285523916369        0.24898684788390
C           -1.81758510229060       -0.69005720480270        0.00557896703195
C           -0.89788893506270       -1.65522069547624       -0.31959258007612
C            0.50294269490534       -1.69545013602752       -0.44539746254323
N            0.99731784857601       -2.87548294017464       -0.89179779853713
H            1.99113452821012       -3.02091079165755       -0.91883015837563
H            0.38899809170194       -3.66893267585630       -1.00036925431411
C            1.45656620751313       -0.73659819477047       -0.04652945873515
C            2.74020740322238       -1.10757557000507        0.40746941923903
N            3.47758623221051       -0.06264683043422        0.75608083223462
C            2.76383804043783        1.02473243086301        0.45701971934478
C            1.47933593129539        0.71482419470568       -0.01045101998925
H            3.16721007483001        1.99728298337956        0.67967642890478
H            3.10749083855956       -2.10215217419731        0.59170765491685
H           -1.37450866641234       -2.62500091333918       -0.43484708238997
H           -4.87433817532661       -0.13419059555162        0.66461334158341
H           -3.52077053162396        2.15195408855761        0.30592348880362
H           -1.25027469442767        2.72533018625416       -0.52275151300637
H            0.57449036665940        3.70106378185796       -0.98071603889751
H            2.13413900506133        2.96721400147863       -0.85479184834110
