31
 energy: -54.599993744924 gnorm: 0.000615585894 xtb: 6.6.1 (8d0f1dd)
N           -5.51137491510705       -0.09673327641846       -0.82684644326873
C           -4.41599281447715        0.03079780587841       -0.50032484358716
C           -3.07787777704892        0.14046300922085       -0.12062564685476
C           -2.42180442874756        1.27371350799111        0.33320706419402
C           -1.04852377125485        0.97864623672890        0.48815739663439
C           -0.88036382569307       -0.43785112070256        0.19010056937728
C            0.21470980568689       -1.32074462908263        0.47713584628633
N           -0.15084163726810       -2.52175087413777        0.98757026189853
H           -1.11392194794926       -2.69895495152015        1.21224209809446
H            0.54307791553074       -3.22666799157323        1.17277283084822
C            1.57507383721087       -1.13974666611382        0.20405494397454
C            2.39424799960054       -2.26383782670006        0.44586858501756
N            3.04324038377359       -3.18890519720095        0.66426296078490
C            2.28603642871545       -0.05701991052623       -0.37574446832805
C            3.51594116697707       -0.18437365387163       -0.98642437599110
C            3.96384065761097        1.12562325622370       -1.27496644267140
N            3.15190185671119        2.05330385623421       -0.82728348868685
C            2.08103382004699        1.41018004036387       -0.26418877460038
C            1.17569964398225        2.18541277320300        0.39333962556843
C           -0.14775596669580        1.98857176329593        0.86332833278158
N           -0.64089603044440        3.01201462317726        1.59873238597219
H           -0.10854436863548        3.85772908652480        1.70986464494560
H           -1.60222814187612        3.00470201254778        1.89084615908457
H            1.51510189886522        3.21416779537180        0.47889040875588
H            4.86311627788567        1.39213722441604       -1.80260776246052
H            4.02533532838217       -1.09632489837104       -1.23032633166388
C           -2.13842973084821       -0.93161020338392       -0.16214272336442
N           -2.49028611132588       -2.22925001034735       -0.49638260897007
H           -3.39076109678433       -2.29524407579567       -0.95089447367345
H           -1.77587459628557       -2.76734470406176       -0.96564674624249
H           -2.87693654993652        2.24422159383171        0.40966798974936
