23
 energy: -40.027971474216 gnorm: 0.000411085173 xtb: 6.6.1 (8d0f1dd)
N            4.02131364332361        2.18093029695390        0.28322444613630
C            3.37014036424005        1.23857454580586        0.19456475255533
C            2.58949682543667        0.08376233678060        0.09750749135122
C            3.02822689096876       -1.23378480431166        0.33088494528412
C            1.98203999260627       -2.11931731549044        0.15247227229253
C            0.83641717030485       -1.42073290116448       -0.26281981029894
N           -0.32679634043120       -1.96549343345974       -0.36665682719898
C           -1.58299721237701       -1.66209928727354       -0.43587454732994
C           -2.27955583079284       -0.51615449468275       -0.02861402172290
C           -3.65448887824309       -0.54221432973859        0.26387909372236
C           -4.10865109608422        0.75699320819133        0.45784076898868
C           -3.05487399421635        1.63326760041762        0.21389256989580
C           -1.89225513085018        0.89653324236449       -0.06164584667168
C           -0.71264657177059        1.50152395477010       -0.52001789570468
N            0.51636529376721        1.10907429749495       -0.45094470023619
C            1.23570249292212        0.05278549786151       -0.30404069669762
H           -0.81078724999093        2.52965016118619       -0.86350757376589
H           -3.10626665661797        2.70605838725525        0.24148378319625
H           -5.11871730513084        1.04067778574189        0.68915552156069
H           -4.24613762866947       -1.43610888225555        0.33794452176540
H           -2.20446652417393       -2.50825358298115       -0.72474636386867
H            2.02451992939915       -3.18554200333622        0.26568146667493
H            4.03373611408048       -1.49446115923057        0.60957990297234
