34
 energy: -63.367213587532 gnorm: 0.000797527952 xtb: 6.6.1 (8d0f1dd)
N           -6.05029156048307       -1.87059260488745        0.64952836435166
C           -4.97474582931785       -1.58104816438101        0.36594956725113
C           -3.67864655079642       -1.16218342523289        0.05399045294342
C           -2.62254592090516       -1.92620035519233       -0.40321565355133
C           -1.46405234810913       -1.11465172369203       -0.48458796203586
C           -1.87685255492182        0.25375287339906       -0.15882673975771
C           -1.20987733491221        1.48544240335442       -0.41125714945121
N           -2.02180397526615        2.50659888900960       -0.77592069812588
H           -1.63525123051434        3.41287060905159       -0.98348847324264
H           -2.97730452117757        2.31668690054467       -1.02494610345593
C            0.15047298472713        1.81780407891524       -0.22397617314800
C            0.42961644196678        3.19518625565987       -0.38852341201451
N            0.63775439428215        4.31423367402790       -0.55587280478023
C            1.28656530246826        1.10189440631148        0.21760347183098
C            2.36027035255458        1.76602562453100        0.79326930200841
C            3.41407984948391        0.86386434987836        1.01504953438800
N            4.58381376793163        1.11755577764940        1.60512623996180
H            5.26224954774829        0.38037305234477        1.70760217934809
H            4.80458287782273        2.04204948565603        1.93192134778797
C            3.01741596156956       -0.40869589264695        0.50441303842838
C            3.84669426676227       -1.52350118705670        0.63315132812870
N            4.61585533393586       -2.35432410307267        0.83822881055677
C            1.70661126053866       -0.31072618203462        0.01450154352310
C            1.07769658895380       -1.37528717951774       -0.64169317099693
C            1.94175668090136       -2.40094773403786       -1.11322573821088
N            2.57328505866210       -3.22892157910078       -1.59397496095749
C           -0.26761488756491       -1.70470331670672       -0.83766190345779
H           -0.39331729763862       -2.70739462027551       -1.23834597230504
H            2.38140955275415        2.80581794538218        1.05953239371223
C           -3.23506951450010        0.19305710586608        0.17509385420710
N           -4.07674303871441        1.21575100171908        0.55438656269492
H           -3.65404506937078        1.99089691029997        1.04339458077886
H           -4.94501581510761        0.90304540758647        0.96604039215089
H           -2.64660324066167       -2.98289232585346       -0.59159114686163
