29
 energy: -51.162875263576 gnorm: 0.000713810378 xtb: 6.6.1 (8d0f1dd)
N            1.97081761508549        3.61095981771266        0.77291538332684
C            1.58727430732643        2.53953786196030        0.61686772919200
C            1.07165362970870        1.23058480201752        0.43987132178533
C            2.06542881029163        0.23808836269819        0.33029445588604
C            1.90960507695559       -1.24354275525625        0.06066542372260
N            0.94122022795883       -2.05594155893411        0.34252233925791
C           -0.32228834329935       -2.05169962020432        0.62615560725100
C           -1.34034164226047       -1.16315753593187        0.28421636385343
C           -2.67624298118855       -1.55946410706741        0.22603728160927
C           -3.47370188422961       -0.45896987543194       -0.11418100906311
C           -4.85512449505405       -0.44996991619992       -0.31512003733346
N           -5.98886470978431       -0.40648627846223       -0.50464954077773
C           -2.64528677861015        0.68133547931446       -0.21510743728115
N           -3.10627206907545        1.93354986983886       -0.46562455146690
H           -4.06524265983844        2.02823398937741       -0.75462743192910
H           -2.47011887657378        2.65695983379564       -0.74990615442235
C           -1.29773614637721        0.28898793983192        0.03267933180862
C           -0.31314833813569        1.23832410350183        0.24081440579602
H           -0.70187002155149        2.25486167896468        0.23411813464132
H           -3.03631687353481       -2.56047755986961        0.37533081744755
H           -0.65143617705192       -2.98183812716133        1.08886506190600
C            3.14864679575110       -1.69563620023757       -0.39741347594198
C            4.07361488032364       -0.65352862903088       -0.28510041168650
N            5.38049269049382       -0.71389051383680       -0.57756244057589
H            5.97792641888367        0.07272544817542       -0.39447506130170
H            5.78771435251931       -1.56590455984345       -0.91988921028991
C            3.40496433184461        0.51574685637938        0.17923104483347
H            3.87348242095221        1.47291820237526        0.31363426148448
H            3.36075962012627       -2.70378203371823       -0.69466452873005
