26
 energy: -42.402585016772 gnorm: 0.000549460674 xtb: 6.6.1 (8d0f1dd)
N           -4.98355736463809       -0.43885220420605        0.03279900351470
C           -3.65942920309206       -0.22343828834895        0.00941054810939
N           -2.78506599540454       -1.21661988363765       -0.02833490300615
C           -1.54045613801579       -0.65851338769814       -0.02178479983826
C           -0.49772145171353       -1.54426733392802       -0.04845911381009
C            0.90670764715687       -1.44063669909912       -0.03922271060269
C            1.78878257739565       -0.40523314053010       -0.01881971152209
C            1.68880513565349        1.06612051529644       -0.01854312066509
C            3.00146584446817        1.50015265709092       -0.03724280106543
N            3.91411629732488        0.49541530201476       -0.03716146318019
C            3.23023546903428       -0.62944589290787       -0.02086705670636
N            3.86042510437011       -1.83410356403789       -0.07207608390704
H            4.85456014943575       -1.79124232859088        0.08243049075604
H            3.38847347812256       -2.64450817865256        0.29151608775678
H            3.34447013487584        2.51930715366777       -0.04387090834317
C            0.62387412258529        1.98415302841415        0.00270829673259
C           -0.73622673832326        1.89348571815562        0.02594826858416
C           -1.66415498158593        0.82829828905204        0.01950349877799
C           -3.01887072049117        1.05540238207363        0.04077725448804
H           -3.52196314302837        2.00319593528145        0.07253054460982
H           -1.24381173804872        2.85347521286629        0.04846630891338
H            0.99399715083281        3.00603102210108        0.00405806568666
H            1.38035332897146       -2.41879854220881       -0.05933814586050
H           -0.86006980594031       -2.56658695199235       -0.07455726446509
H           -5.62946471655125        0.32737963501379       -0.01461295653800
H           -5.31967867269408       -1.38201656838947       -0.04736667691937
