28
 energy: -51.438751338625 gnorm: 0.000804047075 xtb: 6.6.1 (8d0f1dd)
N           -4.89265265166246       -0.61690865315439       -0.39198605509948
C           -3.91015773164237       -0.06511442103913       -0.16683332457924
C           -2.77195942404593        0.68559407164236        0.13072222663698
C           -2.80484148600225        1.93633148907889        0.79697368009069
N           -1.61708278900134        2.47498488412922        0.98656311882409
C           -0.72036666603006        1.64459835492564        0.40482910535379
N            0.46257277638021        2.05533499795337        0.15213808029299
C            1.62171538412831        1.65534236107953       -0.30819358331492
N            2.29114616720060        2.56533069299192       -1.04445114743361
H            1.88432956344862        3.47367524874184       -1.18874762669191
H            3.22924213963328        2.38128120820525       -1.35046060803990
C            2.27392797822951        0.45244181955695        0.05204102621222
C            3.64274817022932        0.31066075709901        0.21857613050631
C            3.95245646280303       -1.02450171963945        0.51242892639753
C            2.78721472495299       -1.76969826284129        0.47535097273222
N            2.70325821382434       -3.12021599725983        0.64135359776149
H            1.81860561330786       -3.52831265614326        0.89093563411271
H            3.51454261224948       -3.58014563509196        1.01837430703472
C            1.67792043118560       -0.88559124166718        0.18731630087597
C            0.43731978112520       -1.38789907453895       -0.10840922620722
C           -0.85795852581571       -0.85858885086471       -0.33121367095727
C           -1.76721697465779       -1.87773251844323       -0.72146021055062
N           -2.42101944602473       -2.75431996038752       -1.06877406489449
C           -1.41074911471399        0.38749972688343       -0.05949213408766
H            0.41735060125299       -2.47438081060458       -0.16337777410779
H            4.93578994053104       -1.40839645283518        0.70977535031699
H            4.36203455980329        1.10953003612402        0.19081888018596
H           -3.69368145368744        2.43630733949922        1.14062500872938
