32
 energy: -54.332288338223 gnorm: 0.000932413474 xtb: 6.6.1 (8d0f1dd)
N            6.22577131717678        0.13519995415642        0.26452414928595
C            5.09244438458495        0.25292322365963        0.10455829296925
C            3.71044927693225        0.33487845929335       -0.07003803743581
C            2.94296327083884        1.48911365381034       -0.25590806380848
C            1.58903956014928        1.15046136372295       -0.30993625626093
C            0.66276750254692        2.19359283342854       -0.42458172229170
C           -0.69727817249794        2.33807743001949       -0.31429582754947
C           -1.76639223154872        1.46176415877659       -0.10133110092042
C           -3.05211676639735        1.93887397924198        0.09948420155699
C           -3.95476948967475        0.86254198397958        0.23885778094230
N           -5.27692343782633        0.95602278763495        0.46000836903714
H           -5.83388697197339        0.12238435365125        0.52868375599945
H           -5.72040961280645        1.85316575170202        0.53243050137007
C           -3.22611924769181       -0.33308537745238        0.09973915083762
C           -3.77429883102036       -1.60823564293237        0.15623494697678
N           -4.25179650204222       -2.65686010105639        0.19858955817138
C           -1.84824095512388       -0.01784691788361       -0.10472615355631
C           -0.95844305670248       -1.03265738023747       -0.32716624086806
C            0.44307356062830       -1.20405915212248       -0.46474907417248
N            0.78052008895060       -2.48057536297577       -0.78389221008536
H            1.72943649810310       -2.68861060950784       -1.05099098121121
H            0.05847425874021       -3.14040473054787       -1.01643984426883
C            1.51233302635780       -0.32000104817336       -0.23540614472776
C            2.84198752583480       -0.77469362675651       -0.05990818198956
N            3.28774566593532       -2.08695687334429        0.10165327447744
H            4.27437560303375       -2.11899768769193        0.32974541747969
H            2.74422532857085       -2.63372607068540        0.75763765623308
H           -1.46740612169499       -1.99502980636220       -0.37859994659736
H           -3.32970983166498        2.97599569875522        0.14611067590178
H           -1.03158989733195        3.36970579062687       -0.37016633651922
H            1.17259503934623        3.14255609106801       -0.56682454982069
H            3.33745951666830        2.48709562270034       -0.30399207645418
