29
 energy: -54.385676386957 gnorm: 0.000875969044 xtb: 6.6.1 (8d0f1dd)
N           -4.14698998305146       -2.40761953297390       -0.56288261238283
C           -3.51465229603146       -1.46939076112046       -0.34510784594171
C           -2.80470721085515       -0.30223947245869       -0.09908207900224
C           -3.34763445308388        1.02585263482508       -0.19694194917224
N           -2.44892948736952        1.97228318666301        0.04414468857289
C           -1.28806243444655        1.36745852763981        0.36132663560512
N           -0.22045319300568        2.05915021993120        0.50344709130910
C            1.08216214967475        1.87605988926805        0.51880670777245
C            1.86396711051916        0.84771499305517        0.03494248630414
C            3.24947507070004        1.02329727663323       -0.34688820175942
N            3.83489821438831       -0.11763152732988       -0.67515463908309
C            2.90962837449906       -1.09123835144937       -0.47563317317358
N            3.26774083396148       -2.39490475816174       -0.65925815530128
H            2.52865749562358       -3.03688178297454       -0.90027120380174
H            4.13117730073273       -2.51018634385517       -1.16743356418022
C            1.66165700829334       -0.58881223910949       -0.07417774419983
C            0.62443345534328       -1.36447959142466        0.51826689175577
N           -0.65101743892845       -1.11694714515451        0.53528133557281
C           -1.48564137938816       -0.14994657231911        0.32948155785398
N            0.96221253557783       -2.59242977342888        1.01768104698494
H            1.91789159894922       -2.75346148382346        1.28715420944421
H            0.24126954158899       -3.07490549974857        1.52950146373344
N            3.91409025096453        2.19501585418948       -0.40598176293887
H            4.81661224426029        2.18554940421005       -0.84819732066752
H            3.40538305933452        3.05958005487354       -0.37254201228500
H            1.60736977386324        2.77237627923217        0.84605468800546
N           -4.61371094951488        1.30981800387327       -0.51123517050794
H           -4.90237082153866        2.27159581014396       -0.54387712474806
H           -5.26542086425634        0.57093042679893       -0.70955954317165
