28
 energy: -51.453904366646 gnorm: 0.000697333551 xtb: 6.6.1 (8d0f1dd)
N           -5.80005189215430       -0.87701018322808        0.94825183700101
C           -4.71210000325299       -0.66205381174423        0.64860625871146
C           -3.39089780853639       -0.39991066000755        0.27016411035843
C           -2.82004637874631        0.88197910231868        0.10507377377051
C           -1.48883714645529        0.72627481522532       -0.23412099393424
C           -0.62466795110405        1.83196930862509       -0.54555133140910
N            0.55683239369406        2.01984990033770       -0.04495266515365
C            1.57382871484313        1.32673420101984        0.34695271345712
N            2.54124762170137        1.87404797487112        1.08888871801579
C            3.58705184310520        1.04796106447422        1.03461655901438
C            3.36015132066118       -0.09547517011207        0.26081138726245
C            4.23961587539243       -1.14403450971076        0.00288410852058
N            4.93685065239339       -2.02727690672545       -0.23544929843213
C            1.99762282037511       -0.03133872470333       -0.14266958802049
C            1.30528658834375       -1.07512292844333       -0.69248268766491
C           -0.07052919065241       -1.39514615979170       -0.80241942994268
N           -0.30390337512920       -2.61350627185316       -1.34199389960551
H           -1.24358800135233       -2.96038063434354       -1.41703952431979
H            0.45809752782837       -3.23460842809718       -1.55406405391785
C           -1.21107013774538       -0.69581194989365       -0.33712944757925
C           -2.42594885040534       -1.35063572586637       -0.04624124658263
H           -2.58327263387489       -2.41179401172438        0.02421263468043
H            1.95022226050855       -1.90505206619378       -0.97666031440046
H            4.49595733961714        1.29491399138707        1.55487337039029
N           -1.13565492945121        2.83412230871127       -1.28197802479186
H           -0.60272199955738        3.68118168851859       -1.38997606384308
H           -2.10335998065292        2.81561289665541       -1.55323906308699
H           -3.33041032749932        1.81180438859630        0.27663321360437
