24
 energy: -42.965895874999 gnorm: 0.000651814396 xtb: 6.6.1 (8d0f1dd)
N            4.65814977343814        1.30349553598769       -0.18529232254619
C            3.44482138026035        0.72178569087498       -0.04072595972772
C            3.18913288722527       -0.65359273740425        0.00244737242030
C            1.82010196290987       -0.86684514590617        0.17725703451509
C            1.23535264071206       -2.12210446438893        0.14048307581542
C           -0.10313439942795       -2.50244708349484        0.15696498936553
N           -1.18836964600502       -1.88665803997264       -0.22521159506296
C           -1.70383523711193       -0.72791003753206       -0.30901134926308
N           -2.90949648454567       -0.41503070939255       -0.77259079111294
C           -3.24350024343672        0.70983751279722       -0.10255085038462
N           -4.45183792244493        1.25794033550744       -0.23837739195769
N           -2.31195038593131        1.25474878572028        0.69994820212646
C           -1.21765878052565        0.52476059713243        0.48235310570076
N           -0.01373817867913        0.91371893644916        0.59299207332030
C            1.20284054176769        0.49582256975886        0.31429112186857
C            2.22687715088951        1.41248624823755        0.13336852955914
H            5.45352864360766        0.73403782694120       -0.41342427037917
H            4.71046113202608        2.28741749651839       -0.38115346080647
H            3.92565234873892       -1.42743025149999       -0.11434384316724
H            1.94130873774478       -2.94588038079236        0.14566842605949
H           -0.30276232926177       -3.53589884856195        0.43345246674507
H           -5.11578308888138        0.83042261809531       -0.85700601362381
H           -4.68694290568077        2.06466234811116        0.30976340021895
H            2.10635255041243        2.47825908891471        0.16038468171741
