29
 energy: -45.572570385830 gnorm: 0.000917475011 xtb: 6.6.1 (8d0f1dd)
N            4.33675512575193        0.39586936492599        0.45502339435308
C            3.24206804931906       -0.35325696860342        0.11105286296567
C            3.29127039595015       -1.70137319591402       -0.27396285056796
C            2.00034876155456       -2.13509727852258       -0.48971596420788
C            1.08576621489380       -1.07537889831269       -0.28191075484970
C           -0.27805842376948       -1.32976904906464       -0.23952060981319
C           -1.41285740649434       -0.56658140217989       -0.01480682140927
C           -2.70732042512446       -1.17133073499528        0.10467803210472
N           -2.97221533900356       -2.52273545761689        0.10824088447710
C           -3.67149868597890       -0.17296322619025        0.16624106134525
C           -3.03268689238897        1.05760204705595        0.04479858784471
C           -1.64949042059709        0.86712679510135       -0.04122250674502
C           -0.73275375729213        1.92163724495042       -0.27471080866691
N           -1.19181113169013        2.99740823634754       -0.96968682803990
N            0.47709069558897        2.08512668257639        0.20935659281400
C            1.50885150335840        1.35618264822373        0.49974754579898
C            1.88965269202253        0.07983227544581        0.09810121281971
H            5.22868249633040        0.04560493466174        0.14622663562075
H            4.24161484113813        1.39697106248735        0.43743796144434
H            4.18866125413158       -2.28697192131743       -0.36416004097117
H            1.71569531846456       -3.13601912279201       -0.76361369380621
H           -0.49619835460243       -2.38237573257266       -0.40438196020715
H           -2.23599169991192       -3.12656749626910        0.43591921133502
H           -3.88777113569951       -2.77326644161713        0.44659702374138
H           -4.72926670901632       -0.32794007692385        0.28104565523506
H           -3.53439936997714        2.00961748404938        0.09041296794362
H           -0.63658998713211        3.83575365973930       -0.97586684215769
H           -2.16517859880585        3.04932894089153       -1.20849200807838
H            2.24681629198079        1.91344561643549        1.07945279457676
