25
 energy: -38.682076229048 gnorm: 0.000571186910 xtb: 6.6.1 (8d0f1dd)
N           -2.44556621485781        2.27346542683286        0.35639300474201
C           -1.40139421559764        1.44879130935139        0.09384498849682
C           -0.18685025073802        2.15167210338849       -0.07933344802016
C            1.13973925647836        1.83202086429947       -0.20884510368660
C            1.89073587015337        0.66357986415653       -0.09853395285978
C            3.29451152534360        0.68860169040535       -0.14218891141923
N            3.84459152245321       -0.51740104241091        0.03841745598048
C            2.83774348584805       -1.36666429324404        0.19496841779409
C            1.57047743507160       -0.73813097241395        0.12418885754354
C            0.39644358999581       -1.46329625263298        0.17697518414241
C           -0.94835568365371       -1.15394881489264        0.04535871159674
C           -1.87237075137693       -2.22532921678537       -0.04568236840263
C           -3.14283616058445       -1.72731547609272       -0.23221429228589
C           -3.06672865825543       -0.33575749061887       -0.20767515784116
C           -1.73306836522154        0.07539408925700       -0.03538669661959
H           -2.30787439620993        3.26727260786661        0.40768653110054
H           -3.35906690697931        1.90487027895823        0.54243816757854
H           -0.35943598314612        3.22507648762838       -0.10608885674948
H            1.77294911778726        2.69967571851244       -0.37677578209964
H            3.91749721360721        1.55347059227308       -0.28913489887316
H            3.02174857920842       -2.41540816955713        0.34866342854181
H            0.57102628781383       -2.53065837171797        0.29211652643665
H           -1.59802105419693       -3.26382166669990       -0.00605470628144
H           -4.04114903389366       -2.30045703718035       -0.37199785407270
H           -3.91944131084922        0.30064189651705       -0.37093784554218
