29
 energy: -55.177633695348 gnorm: 0.000405117626 xtb: 6.6.1 (8d0f1dd)
N           -3.50750732968074       -2.68704894821337        0.30995368553875
C           -2.87822924923689       -1.72930938998549        0.20150226777630
C           -2.32234168921374       -0.46726312284508        0.01279474903686
C           -3.15738579424610        0.63749968311955       -0.41628318420983
N           -4.47240462762798        0.54428770524894       -0.64080708672987
N           -2.46682890721416        1.74673061150946       -0.55769945458671
C           -1.16950801698752        1.47484424583377       -0.21906446932043
C           -0.34975981298489        2.55456627231278       -0.08769602628698
C            1.01070648648822        2.69902194748600        0.33244015158316
N            1.30473268832900        3.88280271065610        0.93212369201537
N            2.03830932029033        1.94089421134601        0.11158144486404
C            2.26200276410949        0.67342868494320       -0.15534796465165
C            3.49336773677329        0.19315794233160       -0.56700639923542
C            3.44657191652706       -1.21077255464994       -0.41165350354262
N            4.42964019524499       -2.08701158680588       -0.64989368589320
N            2.25801541441097       -1.63567244996995        0.04839371889248
C            1.46096999248736       -0.56238170548959        0.14167524036835
C            0.10324935666541       -0.78006524061095        0.34454556442103
C           -0.17453900891432       -2.13471268297567        0.67729691564896
N           -0.37891027987800       -3.21227621159381        1.01117501436958
C           -1.02522726794168        0.03256243664793        0.10265414796637
H           -4.94447091738536       -0.33246033463412       -0.50516826964708
H           -4.97747729487294        1.35304392237051       -0.95469233278298
H           -0.85843667577629        3.49128691793935       -0.28503453606960
H            2.26522980051981        4.08242342999817        1.14883325226242
H            0.61524032011329        4.60639599352362        1.01699964276133
H            4.33796955635438        0.77465687281030       -0.87594567900245
H            5.29526504527891       -1.79625610535119       -1.06537042025416
H            4.24916055066963       -3.06087361294642       -0.47980279019018
