30
 energy: -55.681474721278 gnorm: 0.000810733037 xtb: 6.6.1 (8d0f1dd)
N           -4.16950618513947        2.57803913265102       -0.77050436877545
C           -3.48356619884497        1.68521697945495       -0.53447839261176
C           -2.72007208217193        0.55544732428137       -0.24695433619576
C           -3.28620618006157       -0.70803646124240        0.10218206935503
N           -4.60222663254840       -0.97069394590103        0.16260277087433
C           -2.23437877418110       -1.58735135281977        0.33634050100414
C           -1.00338354621157       -0.94055448227908        0.11789354154789
C            0.18507225633380       -1.67909795468669        0.08849189936637
C           -0.02731979884928       -3.05637546838136        0.37188364666671
N           -0.16434466196023       -4.16598971546834        0.63553307569957
C            1.55084169253768       -1.41661748065119       -0.22997868270983
N            2.25654093644749       -2.50556373087329       -0.65371460727552
C            2.30147615818571       -0.22893012656856       -0.07918786013912
C            3.70502769487671       -0.43600557510006       -0.16963174849417
N            4.83729191820879       -0.61533275538136       -0.24189300761443
C            1.99503489609776        1.11835138311390        0.16732427909334
C            2.98256964504759        2.07491918506451        0.44831347352237
C            2.35839410539980        3.31793262356684        0.41348494921929
N            1.07009601023602        3.22886472404118        0.09349798516305
C            0.76763712182072        1.92168384857034       -0.02665097687300
C           -0.55449606532391        1.62279830866725       -0.28229143646844
C           -1.31471059508203        0.46732330663575       -0.19508009023351
H           -4.92516160388169       -1.86662501524560        0.48063375095294
H           -5.26911831022119       -0.23661340240245       -0.00112386712896
H           -2.35494456609716       -2.62055682072731        0.60116411634308
H            3.25952965803785       -2.45571507844821       -0.71930639873334
H            1.83263597938332       -3.41762339106829       -0.64090295172365
H            4.01751496657867        1.88689339721463        0.65678159289683
H            2.80437924076103        4.27701773586282        0.60625747986806
H           -1.13667147986804        2.52191533061673       -0.46368633558422
