29
 energy: -60.772850304288 gnorm: 0.000403659874 xtb: 6.6.1 (8d0f1dd)
N           -4.48077292124800       -2.78621886976744        1.15556260958230
C           -3.78683758889527       -1.95965456249592        0.76137635949903
C           -2.98545538436890       -0.91029867258280        0.30661132428191
C           -1.69567178477685       -1.01660342043545       -0.25598421736263
N           -1.17352831192033       -2.10367219867598       -0.70560860600180
C           -0.00123882854386       -2.41674377761785       -1.18557053936859
N            1.17183776652461       -2.10414907995439       -0.70720777716757
C            1.69495537729033       -1.01726217867308       -0.25823006548586
C            2.98552960186760       -0.91146811336540        0.30264824800264
C            3.78733286004280       -1.96115460637867        0.75583843008464
N            4.48172063346372       -2.78793955075186        1.14866781114016
C            3.39592967440481        0.43907781967812        0.24728964185007
N            4.58827803651972        0.91209620665199        0.60676470347859
C            2.31626538300535        1.23400748168315       -0.24995840739904
C            2.39347772729994        2.62028384089929       -0.39571159938933
N            2.53459442780571        3.75575895612248       -0.50061533715536
C            1.20233624059614        0.41276087091140       -0.47403911455678
N           -0.00024605625112        0.89762029035667       -0.59495090542969
C           -1.20286918119823        0.41322918883059       -0.47267313468019
C           -2.31629536881206        1.23485110500071       -0.24743790695821
C           -2.39325727454884        2.62109796640661       -0.39335455620561
N           -2.53406970258448        3.75653042901683       -0.49810028028221
C           -3.39553795194059        0.44035537052249        0.25141867394947
N           -4.58727118457558        0.91381011675782        0.61235501649720
H           -0.00192001750312       -3.19203553009554       -1.94653731095428
H            4.79625588701802        1.89186815917984        0.50339305695208
H            5.28883157002877        0.29146574687183        0.97792918114699
H           -5.28749291754764        0.29349044933137        0.98466810854247
H           -4.79509601835388        1.89361841967466        0.50902863478933
