27
 energy: -52.515915888602 gnorm: 0.000976536732 xtb: 6.6.1 (8d0f1dd)
N            4.28760572119351       -1.97359585993373        1.21904971340815
C            3.50133418177417       -1.20170827047269        0.89488509744026
C            2.53722727432036       -0.27141634886943        0.49563726949605
C            2.71380085907358        1.11118540577764        0.36670804342854
C            1.53573082005542        1.68948906438447       -0.10789254007711
C            1.43188342155104        3.06323703488106       -0.35809779831096
N            1.45032682743098        4.19650587920124       -0.54383517490402
C            0.52846008071875        0.67915779822459       -0.20051017218562
C           -0.82624957418306        0.93855655804772       -0.30286944949255
C           -1.19192197403656        2.26376333115266       -0.67903076928745
N           -1.55238125431264        3.28345454647230       -1.05663913606752
C           -1.95694377463226        0.15572575077965        0.04830414074291
C           -3.20388863354562        0.72124670487654        0.28488062985708
C           -4.03627866853834       -0.30970049682436        0.77520114464366
N           -3.42379396987218       -1.46611660030217        0.83442328746076
C           -2.14891790966473       -1.28041407660922        0.36738519142120
C           -1.43784762267784       -2.40983762064968        0.09988116660768
C           -0.12995344338341       -2.57004074642075       -0.45826114585864
N            0.10400460829959       -3.69559181607929       -1.16585896250077
N            0.90506133702814       -1.82777570382347       -0.21569729100287
C            1.22182919626597       -0.60283601099342        0.08208912397898
H            3.61958501997497        1.64703911794567        0.58579083076562
H           -3.47972253278822        1.75064403184728        0.16573795219254
H           -5.06287400405738       -0.21370557897995        1.07974456419348
H           -1.96471821659665       -3.32729921158494        0.33296933313174
H            1.04539619357746       -3.89653955791387       -1.45845565841332
H           -0.60330167597485       -4.40212501133233       -1.25949415856950
