28
 energy: -52.230009529146 gnorm: 0.000541185593 xtb: 6.6.1 (8d0f1dd)
N           -0.56469990661606        4.65531698884928        0.42288314210750
C           -0.05393494460887        3.63687792597171        0.28311263203207
C            0.58438552129568        2.40213235087194        0.12108787596010
C            1.92309927781757        2.19612445324983       -0.13907713514770
C            2.15413906308865        0.80468260972649       -0.22472839351534
C            3.40328423208890        0.28393297131096       -0.58947823610827
N            4.43195593691318       -0.06953407119558       -0.95832312361992
C            0.94626431310688        0.09881016934794       -0.03945593746062
C            0.93604973508166       -1.30002817140636        0.15340468573113
C            2.20350817217366       -1.81685099456908        0.53767126269217
N            3.16346200961601       -2.28210753103673        0.96303397644030
C           -0.05867286088645       -2.29556464305095        0.06662991239733
N            0.36561697552125       -3.58760646221105        0.18773479614421
C           -1.44622099045632       -2.18897777875128       -0.20382170290315
C           -2.38569923539332       -1.19679627659810       -0.16432389204468
C           -3.76364170636031       -1.50407766044592       -0.35132440088759
C           -4.52400730182155       -0.36646539992305       -0.19141961499149
C           -3.67440156142158        0.71381603294690        0.08092910219103
C           -2.34714030869877        0.27055589361764        0.09450416765673
N           -1.38811411803210        1.14924338661691        0.22901048165807
C           -0.09974328086660        1.13193623828824        0.12629329824319
H            2.67480799407882        2.95338486055021       -0.26614553885599
H           -0.30281080079917       -4.33419065402393        0.24443324805464
H            1.32538796560291       -3.79246210711647        0.40746687336506
H           -1.87937263294854       -3.16238016847127       -0.42554471294681
H           -4.13858591417865       -2.49171341605770       -0.55169120033931
H           -5.59499297588195       -0.31170603179733       -0.26196932598682
H           -3.96275297471449        1.73618535300692        0.23297631213351
