30
 energy: -54.898559681596 gnorm: 0.000788299030 xtb: 6.6.1 (8d0f1dd)
N           -1.87831358445315       -4.11185823089993        0.95155913018600
C           -1.83326249442779       -2.99872604290654        0.65922836509799
C           -1.85529885770238       -1.65690873787292        0.29212936148440
C           -3.02042694530144       -1.00627904474841       -0.23217611211644
N           -4.21948715074058       -1.59900024135786       -0.37223447704771
C           -2.67933456945454        0.30305046825055       -0.53202763236104
C           -1.33884521812163        0.53999741923512       -0.16968488461006
C           -0.82870889144285        1.83017376298841       -0.11543900944696
C           -1.70606848199955        2.86196318491749       -0.50811619443060
N           -2.38241661788336        3.73800485524787       -0.82266035653641
C            0.44686471848991        2.33325446207633        0.35072737913653
N            0.41094321381349        3.54465413776743        0.97231912020026
N            1.63286746302789        1.86152314743330        0.15080524165908
C            2.20658884795369        0.69922792368489       -0.05592796286432
C            3.52667342255827        0.54808354258893       -0.45420581755442
C            3.85119924368085       -0.80276311372387       -0.22232897260427
N            5.04268892645983       -1.39361522770740       -0.40807059606077
N            2.81457900453514       -1.50744609128888        0.27351099337358
C            1.76311896951556       -0.67795459106724        0.32132251993039
C            0.51021555729026       -1.21432914783414        0.54526536384761
C           -0.77758196437923       -0.75528204416130        0.29324032948466
H           -4.98031550488819       -1.10980974578293       -0.80743038710784
H           -4.32856621141113       -2.57080217364589       -0.14051800839466
H           -3.35001501414634        1.04672680309432       -0.91939252787558
H           -0.42306992282954        4.10593781354021        0.93825573184417
H            1.29165294920146        4.00353890786524        1.13349314274752
H            4.18508502434761        1.31459324966088       -0.80954619553220
H            5.11615928711082       -2.37952254717602       -0.23074902071821
H            5.77813324967076       -0.91926468843783       -0.89884405923092
H            0.55627139852774       -2.26959721614266        0.79849197140430
