30
 energy: -54.882714449566 gnorm: 0.000605907608 xtb: 6.6.1 (8d0f1dd)
N           -2.92383765273307       -2.58562881260307       -0.92670970254571
C           -2.06612409231094       -1.94670037261046       -0.50505098201254
C           -0.90683517553540       -1.22189769824466       -0.12049292904498
C            0.21406273481547       -2.08279826794699        0.10826806871563
N           -0.10560802185186       -3.40927196417561        0.26254896426223
C            1.57151445006956       -1.81184246679788        0.23786638253330
C            2.39934751140908       -0.70415167551851        0.10676765375258
C            3.78332079359851       -0.81431407636763        0.13956335831789
C            4.30579748424982        0.48092999659602       -0.06346195615207
N            5.59997443814018        0.82818270908281       -0.13655452627668
N            3.34163435739869        1.40220526332221       -0.18924516166857
C            2.16183733585143        0.77115457298223       -0.08439429818005
N            1.10429707101029        1.51683431719686       -0.10184762697601
C           -0.19093995919676        1.34070344248284       -0.01855859616330
C           -0.99307396946405        2.48052204871383        0.01710420169650
C           -2.34267617337818        2.11639743892743        0.05854460471069
N           -3.40389120511251        2.93510220647298        0.12636785742325
C           -2.41869780193035        0.69714492256302        0.00991986502933
C           -3.65913237704332        0.07110456387072        0.13492572729869
N           -4.74175546203681       -0.28601801267553        0.29871180485532
C           -1.11350166582429        0.15348457262767       -0.02782177781649
H            0.62898288586207       -4.09335411060736        0.22407928621091
H           -1.03889099262027       -3.72603704366299        0.06259784159464
H            2.14676560966113       -2.71693938173539        0.42538168419607
H            4.35880850098073       -1.71133308799534        0.27168840556092
H            6.32815632615502        0.15006206309867       -0.01176906606657
H            5.82674038498257        1.79648889499392       -0.27513919366207
H           -0.60468197616769        3.47985517906656        0.01872556031850
H           -4.32986742948815        2.54593398068041        0.18476537686173
H           -3.27694670591802        3.92738334656705        0.20980106999606
