29
 energy: -55.961300004003 gnorm: 0.000746958228 xtb: 6.6.1 (8d0f1dd)
N           -4.54013233655063        2.42432487626186        1.16564202986526
C           -4.04418950476710        1.47970932321198        0.73965866505485
C           -3.48844143650518        0.30321000931407        0.23117291283497
C           -4.23635218176203       -0.81897865026303       -0.22163593282155
C           -3.37860002832779       -1.78325998425033       -0.66909265482623
C           -2.02950577106760       -1.36562361158393       -0.44297686056975
C           -1.01504108884785       -2.27180981722408       -0.45894150059830
C            0.34354423809930       -2.29467692119987       -0.02202648296526
N            0.82242134140057       -3.55939797806281        0.13706202527207
C            1.25020781517664       -1.24931242573891        0.20863555342013
C            2.52731947064041       -1.68873584966317        0.64435945018610
N            3.51587191284266       -2.09410496613818        1.06672729344244
C            1.18067953651096        0.15377276359894        0.02671874084509
C            2.30865522306838        0.96342661571346       -0.06529089889193
C            3.67249861068133        0.68147361065447       -0.10243599696566
N            4.81558505929929        0.58789396607466       -0.19271153580619
C            1.82732897307057        2.31948670286155       -0.23162399912328
N            2.60171461154317        3.38845876421852       -0.41580478364086
N            0.51001297077251        2.37795394912203       -0.18514188062693
C            0.03817172700276        1.12217282080269       -0.03250702342174
N           -1.23863000400953        1.00406078701073        0.12555521511000
C           -2.11929582270061        0.04898839448292        0.03757055159325
H           -5.31021544047782       -0.86981822651200       -0.21394393041274
H           -3.65381461292332       -2.73897159523431       -1.07600001417637
H           -1.34501625381217       -3.26474075836969       -0.75827742563549
H            1.76323578978460       -3.71399737429452        0.45806069072952
H            0.21884900375714       -4.35285745251356        0.02196468275212
H            2.16741012108408        4.28967037465871       -0.51250359883832
H            3.60321672471652        3.29818789786401       -0.41864663098465
