26
 energy: -47.987931692704 gnorm: 0.000744668385 xtb: 6.6.1 (8d0f1dd)
N           -4.66729501619487       -0.76925634603078        0.04052977567383
C           -3.55546252228645       -1.05728167830086        0.02600024089734
C           -2.21063278490813       -1.43795598965948        0.01138557473872
C           -1.72149862068934       -2.73709069543095        0.00009325095750
C           -0.32805055615157       -2.69462277532809       -0.01526616295629
C            0.13034443611603       -1.37127593864312       -0.00967135265861
C            1.50984064376657       -1.09506377751761       -0.00817927154154
C            2.29252998136584       -2.28367599284988       -0.03358601585774
N            2.95316594668003       -3.22274014110220       -0.05941970278277
C            2.30522670184342        0.07695531221371        0.02017449583846
N            3.65569204660700       -0.11376014411712        0.04259893768048
C            1.93789511364910        1.43795262207387        0.02556290077471
C            0.77437174889982        2.16088213909164        0.00662273607545
N            0.92248445518628        3.51690445151306        0.00312404106823
C           -0.28395526875189        4.05398203601041       -0.02345364452677
C           -1.30543181273572        3.09386556918281       -0.03346657652610
C           -0.67486640258989        1.84676391090559       -0.01304878129327
N           -1.38159064397940        0.73823810010298       -0.00534508752223
C           -1.10566465739172       -0.51935600217523        0.00231813597440
H           -2.31996325656852       -3.62987771102861        0.00259316065502
H            0.29903265344322       -3.56707386895402       -0.02644916769246
H            4.27271109796439        0.67805821359659        0.05760578642266
H            4.05423105384741       -1.03643853825094        0.03956375819538
H            2.79526376035324        2.10607379754946        0.04044983310427
H           -0.39897039854796        5.12337541854320       -0.03345761788645
H           -2.36359008452697        3.25974464120563       -0.05173627771222
