27
 energy: -47.731329197584 gnorm: 0.000737921435 xtb: 6.6.1 (8d0f1dd)
N            5.19465086719725       -0.17268968194265       -0.01055571245374
C            4.13110832569172       -0.61050377677101       -0.01109451696382
C            2.83180803204890       -1.12143533273991       -0.00923080159438
C            2.48718147747393       -2.47847221768732       -0.00555480222104
C            1.10879417306943       -2.57639163917054       -0.00315406717830
C            0.52945561238463       -1.28902123033917       -0.00511078355462
C           -0.84481249459404       -1.15375078177142       -0.00228594230063
C           -1.71338602540857       -0.07266975712105       -0.00286472939199
C           -3.12129303762930       -0.25796608553356        0.00165352285099
C           -3.80171999003214       -1.47468277084555        0.01062486122355
N           -4.35718045903123       -2.48138768015432        0.01959854652404
C           -3.69201142109595        1.02797456136514       -0.00254166770632
N           -2.77539702616000        1.97498994802661       -0.00890306010147
C           -1.55090489326304        1.38159980459443       -0.00937658089379
C           -0.48380076261413        2.25827315015826       -0.01273318849555
C            0.91202074840453        2.16201121886817       -0.01201595194505
N            1.56274966572637        3.36451320852356       -0.03850174268686
C            1.76891539466501        1.04565087043472       -0.01163054308501
C            1.64455825711375       -0.32595358760587       -0.00951339938298
H            3.18726050220241       -3.29378017977657       -0.00459439371604
H            0.54631226878463       -3.49172956510427        0.00016525112368
H           -1.36489815805211       -2.10947881484000        0.00116752968743
H           -4.74017210106244        1.26717985006052       -0.00097633811299
H           -0.84786887557115        3.28200254233467       -0.01698128677394
H            2.56258768793908        3.40637083491869        0.04482235037081
H            1.04512881205861        4.22085321896954        0.04215012534528
H            2.81519221025386        1.34824907914896       -0.01498586876737
