25
 energy: -43.479422250847 gnorm: 0.000873243307 xtb: 6.6.1 (8d0f1dd)
N            4.22942119039659       -1.88106056313373        0.00259978349169
C            3.35928519163940       -1.12981582801810        0.00867517503774
C            2.36737649852298       -0.14807365698878        0.00930671911529
C            2.63825732910257        1.24358439602229        0.00802795752945
N            3.86679148134511        1.79357611365375        0.03681202892238
C            1.41146720803156        1.91447851691611        0.00071292209060
C            0.35169088154274        0.99819374835834       -0.00200984433128
C           -0.96027685218785        1.44289335436418        0.00016227714313
C           -2.19410834611067        0.81101951531259        0.00246648748338
C           -3.40209632695340        1.52667809048892        0.00833558234628
C           -4.42731113093732        0.58489638225050        0.00904305509217
N           -3.96934791774068       -0.66274095493164        0.00436795203294
C           -2.61955357570373       -0.60486684925155       -0.00000513182558
C           -1.95364103924388       -1.81721151262412       -0.01013386125915
C           -0.61163442913999       -2.20579453932428       -0.01976280911206
N            0.54362294063230       -1.59778768897201       -0.01072112678298
C            0.96779236727243       -0.36136141799647        0.00016516983221
H            4.67671589372622        1.20157277947663       -0.02742854844767
H            3.98227952878241        2.78721386178377       -0.04949845886244
H            1.29720774970948        2.98399768201634       -0.00208626821083
H           -1.04178307116624        2.52785583969804        0.00377663982023
H           -3.50785431745226        2.59465806758446        0.01175251005350
H           -5.48650868406181        0.77273637572217        0.01251638693763
H           -2.65175498810500       -2.64736684039623       -0.01293689351979
H           -0.47137316210085       -3.28650303341115       -0.03484030067687
