24
 energy: -47.776011687926 gnorm: 0.000812839761 xtb: 6.6.1 (8d0f1dd)
N            3.42387851111194       -2.92339620409474        0.00403620282216
C            2.49400537887733       -2.25295698021139        0.00309333928392
C            1.29916372146543       -1.47870030977963        0.00319298308203
C            0.13694591461743       -2.25312383351539        0.00462942250140
C           -1.21193933513484       -1.96833726199574        0.00517841525684
C           -1.95898188518895       -0.79297566788083        0.00440094436551
N           -3.28534875413207       -0.90654826199268        0.00502935221955
C           -3.75738097125119        0.36103615200759        0.00333437553256
N           -5.05944128028903        0.62699921610329        0.00339820383419
N           -2.82679295395243        1.32612803633861        0.00158943838918
C           -1.65306235426476        0.69502782685646        0.00230118822278
N           -0.57113312774654        1.41826922313065        0.00132138618285
C            0.70320389606514        1.15858730643152        0.00130366148593
N            1.55199496339209        2.18604801906322        0.00053868812375
C            2.77948553409755        1.64852790494148        0.00024979196414
N            3.88555449602017        2.38279212214532       -0.00062252264164
N            2.82244852449254        0.29630608901038        0.00091824482729
C            1.55448432960330       -0.10052836765448        0.00174638952117
H            0.35444730017605       -3.31746304086051        0.00553259669742
H           -1.85926509981622       -2.83884282001242        0.00629274917675
H           -5.36076665689616        1.58513223945500        0.00210383105724
H           -5.71898333300189       -0.13036825490866        0.00480252422905
H            3.80768095929372        3.38423436246050       -0.00112754042029
H            4.77940181096140        1.92407990086241       -0.00084140181373
