25
 energy: -47.491430032144 gnorm: 0.000909532497 xtb: 6.6.1 (8d0f1dd)
N            3.35487005975646       -3.06902331518810       -0.00109536883694
C            2.43643176771870       -2.38111157340774       -0.00039882328884
C            1.28325816033040       -1.54793724283908        0.00055325534095
C            0.10755991167323       -2.29349043729489       -0.00005959371389
C           -1.24230661430976       -1.98638185520213        0.00026135517963
C           -1.96182968736931       -0.80241461769832        0.00137143953729
N           -3.30040699610053       -0.88244367200415        0.00140172274961
C           -3.73151230146567        0.38915708325841        0.00243187387513
N           -5.02504545739150        0.70728541238251        0.00255173449764
N           -2.76832774544328        1.33320172486075        0.00306514986615
C           -1.61853608657475        0.66619537491558        0.00252570250590
N           -0.50939599164838        1.36185204801668        0.00315617643105
C            0.75535149699035        1.10140427336416        0.00300113588528
N            1.57720940726379        2.15950031788527        0.00398564369588
C            2.83425770350587        1.71065668456554        0.00354514480788
N            3.87130419824806        2.55189106354058        0.00436322449616
C            2.89531541146904        0.29031226495605        0.00216423402489
C            1.59581290633665       -0.17116957984443        0.00174423404573
H            0.29993370249796       -3.36292904594899       -0.00098358550228
H           -1.90069587806383       -2.84816272030452       -0.00053151857124
H           -5.28624109247333        1.67649893819086        0.00442227607757
H           -5.71369364178143       -0.02292230383616        0.00323140294887
H            3.68451457101524        3.53943527739070        0.00543131910847
H            4.81588016961464        2.21208417837506        0.00416765420450
H            3.79687391740233       -0.29218082583298        0.00158704533440
