23
 energy: -44.031585317487 gnorm: 0.000900476876 xtb: 6.6.1 (8d0f1dd)
N            2.76781888719985        3.24780269154303       -0.00174313007239
C            1.90468350544179        2.49302391734235       -0.00050590626642
C            0.81716894704706        1.57167780395199        0.00096722291433
C           -0.40892800812673        2.22107113955164        0.00199530956409
C           -1.73442593926422        1.79767187353320        0.00344663165405
C           -2.34254373139471        0.56085355365411        0.00447767531718
N           -3.69435520472083        0.52269522050039        0.00582866220240
C           -4.01009924636961       -0.76293785321648        0.00635984977846
N           -2.99194720378725       -1.62634086249267        0.00542664926788
C           -1.88737205133890       -0.87601805092675        0.00425859773661
N           -0.72926491088272       -1.48183736706670        0.00327182941450
C            0.50875627802648       -1.11635194809874        0.00205102627513
N            1.41726961944638       -2.10098983079007        0.00146325709542
C            2.63262735104115       -1.55375451736743        0.00013047038695
N            3.73479356546811       -2.30344499857974       -0.00069352652038
C            2.57252370855778       -0.12918790051941       -0.00027979184691
C            1.24007032727033        0.22120838707333        0.00089018771944
H           -0.30720566694239        3.30261489084840        0.00159783900052
H           -2.46280386543446        2.60179429233361        0.00384143961769
H           -5.03228123560892       -1.09628893819893        0.00747362145758
H            4.64877704896523       -1.88750503267100       -0.00150663364521
H            3.63105811099702       -3.30367412779960       -0.00015242606523
H            3.42281028910953        0.52616286309530       -0.00131506468580
