26
 energy: -48.003309570642 gnorm: 0.000504166104 xtb: 6.6.1 (8d0f1dd)
N            5.61291921637730       -0.54630513103162        0.00810802946021
C            4.57981031361896       -0.04281896329714        0.00586106409990
C            3.31917223403250        0.55462968288596        0.00301797759224
C            3.03497249575971        1.92774725035201       -0.00014204708812
N            1.73223001928217        2.16667413693733       -0.00216681806523
C            1.08611441670472        0.98181983831906       -0.00054460357100
C           -0.29862939332555        1.03750469171538       -0.00236631048776
C           -1.29393773786773        0.07651432784651       -0.00179402547790
C           -2.65111887495354        0.45194238968956       -0.00463881402477
C           -3.16169525135045        1.75107633672087       -0.00830996641149
N           -3.64041865634025        2.79661742977158       -0.00940128945094
C           -3.47719306031209       -0.71164772082621       -0.00367796342956
N           -4.81892547011421       -0.69735020416093       -0.00587523620120
C           -2.63681574778434       -1.82449675224393       -0.00036741155847
C           -1.29326751052739       -1.41950091698758        0.00099564998678
N           -0.37920285906995       -2.35848463457075        0.00438113586515
C            0.92516895570830       -2.41593886597031        0.00651209953758
C            1.98112314306046       -1.49976207002612        0.00578579827624
C            2.06514730638034       -0.11773772468661        0.00286175676635
H            3.74526305682568        2.73483903113637       -0.00090065074088
H           -0.65704143981837        2.06342809537098       -0.00491186593553
H           -5.33815517265322       -1.55663436119204       -0.00473850040523
H           -5.31469297515018        0.17741172781065       -0.00785934132292
H           -2.94808646371272       -2.85115296953195        0.00101417338689
H            1.25993308224292       -3.45345539826821        0.00944010064389
H            2.95546454138694       -1.98084338396288        0.00808547605579
