36
 energy: -66.815475862915 gnorm: 0.000935902870 xtb: 6.6.1 (8d0f1dd)
N           -4.68333708104056        3.04016681494861       -1.22187839035137
C           -3.71041444211326        2.52721014902236       -0.88528378302644
C           -2.54611895341687        1.87960604264349       -0.47322323940671
C           -1.36516139748580        2.50003174665007        0.00986575436714
C           -0.39152364512955        1.54544976454360        0.22577440239701
C            0.84345301392172        1.88146655005981        0.88898479146110
N            0.72177063920671        2.80686304528421        1.86622869461385
C            2.12115450975450        1.46819495033286        0.53355107681793
C            3.19213902880075        2.12704779822370        1.16461319018415
N            4.06808311880747        2.66051387497734        1.68818076999321
C            2.53338954938126        0.56554147589082       -0.51308646506729
N            3.62534041874234        0.96025142485153       -1.21019181113361
C            2.01141123763456       -0.70020445053761       -0.76831535082792
C            2.73726079428668       -1.48455457145000       -1.68960736829040
N            3.32556111906491       -2.11108243553115       -2.45434353000620
C            0.95915447074513       -1.42768210807298       -0.13148152066158
C            1.01893398059773       -2.79382268283231        0.01472647734678
C           -0.22801752724857       -3.27614890287036        0.48812455805316
N           -0.50502528622879       -4.54128274702478        0.82719980946155
C           -1.12623232651319       -2.18966365796649        0.53903081508196
C           -2.41209442990937       -2.31455835034799        1.05354230462700
N           -3.47028656965594       -2.49137050952013        1.47650724093878
C           -0.43041715321712       -1.00505310976409        0.17253073403367
C           -0.98322554389325        0.24395780250582       -0.02949912876420
C           -2.35274889460434        0.49950869284669       -0.45255953326135
N           -3.21401798830287       -0.39971961817926       -0.98017589191484
H           -1.25353891697681        3.56283478913704        0.13221856071331
H            1.53802623758517        3.20251746905538        2.30338341944160
H           -0.18527623034918        3.17021792275745        2.09862120445110
H            4.12010262541747        1.79278654266708       -0.93759064576588
H            4.07990193313192        0.31316757887466       -1.83446327519156
H            1.87851900231790       -3.40887381694817       -0.17550506300462
H            0.21124090064316       -5.24482222326217        0.79186590555350
H           -1.41048240431334       -4.77968017939803        1.19528820213403
H           -3.14977186671670       -1.37112038026533       -0.72779198035000
H           -4.13063923922647       -0.05788552010150       -1.22137884724634
