30
 energy: -55.685632258006 gnorm: 0.000959407123 xtb: 6.6.1 (8d0f1dd)
N           -4.70316917139528       -2.34840794563602       -0.91297520730036
C           -3.72728278086738       -1.81078157831872       -0.62841396025671
C           -2.55772755747445       -1.13680148767894       -0.23727653749502
C           -1.35331045035255       -1.54492261554381       -0.75142345615295
C           -0.02141639466649       -1.23999477521598       -0.41815548676509
C            0.96798069904371       -2.16172927294426       -0.73580368696236
C            2.21566340890772       -1.74782107443817       -0.22308382832369
C            3.40780887960701       -2.47621298598681       -0.24712914158187
N            4.39989203252704       -3.05613582048996       -0.25657647864741
C            2.05605403330279       -0.48223251701166        0.35100744360525
N            2.98186481490432        0.14255269143190        1.09944262380507
C            0.67197466463935       -0.07251721437452        0.17649559647372
C            0.23680713932908        1.22939094275083        0.21399906453866
C            0.98559563494371        2.43034362043425        0.01323713261297
C            2.35696234829002        2.60501432834729       -0.14709324640493
N            3.48424664213606        2.80655210656142       -0.27808533360498
C            0.08056250030464        3.47265499228503       -0.23424218948309
C           -1.22960961202923        3.03043159353675       -0.08580495281573
C           -1.20191760421317        1.67980190886821        0.23850789443139
N           -2.20439804156178        1.03656331043772        0.77550163210191
C           -2.73986687760484       -0.13009868579856        0.80080470648603
N           -3.60954557688696       -0.41569929354504        1.78809336112988
H           -1.43103466177163       -2.38141518998362       -1.44031061914935
H            0.80350863508645       -3.09182782716464       -1.24914245700173
H            3.93119639550056       -0.19180854388594        1.04422897486475
H            2.85850694972553        1.10429503780059        1.36858666453936
H            0.37847126664476        4.47093252984665       -0.50317456746104
H           -2.11523692906554        3.62780973001258       -0.17474265552182
H           -4.19309099373611       -1.23246564478002        1.72378760648054
H           -3.83705629076715        0.29620098328201        2.46148823925866
