33
 energy: -58.049300931024 gnorm: 0.000868544596 xtb: 6.6.1 (8d0f1dd)
N            5.13045979954881       -0.77011410720199       -0.32496669513255
C            4.17417711189107       -0.18408837734843       -0.06487767599563
C            3.01265453411527        0.52624288345643        0.22975327172617
C            2.96860236224703        1.81082576444314        0.86457360561063
C            1.67390691760485        2.22802312439159        0.90558867156577
C            0.83208966302054        1.19818432711084        0.36567363975695
C           -0.50534345040373        1.34437246812565        0.07874955832605
C           -1.13862821590296        2.64746960512716       -0.24513448567367
N           -0.48570740722494        3.80500562792132       -0.39132965581934
N           -2.41565427221676        2.52186409487090       -0.51038443945402
C           -2.71153070489439        1.19676925883135       -0.33669887461065
N           -3.99564313008951        0.79168015979300       -0.46255225633478
C           -1.58045590470388        0.42031608373516       -0.03553938038443
C           -1.65365461278670       -0.95261664554066        0.41232298193982
N           -2.78628524337834       -1.25416101227504        1.12522296528168
C           -0.77867122911663       -1.96434140020196        0.10212767102161
C           -1.07608441372752       -3.24113979904533        0.60855086810628
N           -1.32389782087624       -4.28664346469299        1.02523193392233
C            0.39605271897812       -1.95149230477592       -0.77236705405006
N            0.45248135893130       -3.02832038380118       -1.61939683334366
C            1.44991672704007       -1.08492532891350       -0.76475396675396
C            1.71255742559996        0.09347944445450       -0.02403992602766
H            3.83088107783171        2.33154274123794        1.24026776015030
H            1.31444871032449        3.11277742636029        1.39947584507288
H           -0.98090431913221        4.57131821162845       -0.81456519012038
H            0.52009614565109        3.81211947592397       -0.35857427478007
H           -4.17857765972754       -0.18503037341200       -0.62006161050735
H           -4.63039399902473        1.46286821114467       -0.86042549451357
H           -2.82394615198241       -2.15516107487232        1.57723167370667
H           -3.25765904468056       -0.49768063101018        1.59306813122503
H           -0.15069286211781       -3.81396732403427       -1.43614293382155
H            1.33450805858645       -3.23671406325082       -2.05853537074813
H            2.29552615291596       -1.40215887108066       -1.36957809334061
