30
 energy: -50.091198433419 gnorm: 0.000747345612 xtb: 6.6.1 (8d0f1dd)
N           -4.62726167438748        2.09664789995824       -0.15959015416798
C           -3.66812936847807        1.46547595889197       -0.06872760240903
C           -2.49571038399579        0.72311540477440        0.04179933406890
C           -2.38925040602609       -0.68848251775624        0.01391325519711
C           -1.06467668465552       -1.07596434260199        0.10311665327025
C           -0.72707041373289       -2.44807346028746        0.30619276437380
N           -1.75910276355767       -3.20721891230740        0.78283052212330
C            0.41674712613073       -3.17892671144779       -0.00402385239827
C            1.66315692992747       -2.88535217930242       -0.54395475647478
C            2.40868097702805       -1.74249309718004       -0.71540340087639
C            2.24569113713390       -0.40115681586690       -0.35273478198625
C            3.30414253045370        0.48950267791617       -0.42252541819255
C            2.82163764935258        1.74264463778238        0.01159208092973
N            3.52199979400108        2.89118335953322        0.09205157479412
N            1.52289639346852        1.69973760772969        0.31133560330744
C            1.08870743695909        0.42622201921584        0.09808316711544
C           -0.26040805613271        0.15945160612950        0.16698961054754
C           -1.21395020028038        1.25069730558369        0.21614453681856
N           -0.90237751830405        2.54736424416610        0.38160412802724
H           -3.24089068283840       -1.33237377913202       -0.11576452085063
H           -2.55796253397155       -2.75985475486984        1.19383335352879
H           -1.60469115512180       -4.17854069370761        0.98715004659368
H            0.27483491496815       -4.24500337776313        0.15399400726839
H            2.19977136853881       -3.78250426645306       -0.83918461102782
H            3.39048142949144       -1.92324501094683       -1.14249089199593
H            4.31140076617317        0.27498404464655       -0.72300878942215
H            4.52230111323766        2.86609092110419        0.01059965655240
H            3.09402890155444        3.68204247983430        0.54056966831822
H            0.10150075146347        2.73295803050547        0.37085375612603
H           -1.59076334049931        3.24490492715101        0.15355594874127
