31
 energy: -54.612030213132 gnorm: 0.000849429177 xtb: 6.6.1 (8d0f1dd)
N            1.64078863158604       -4.64580655972328       -0.13509695242714
C            1.47869028389635       -3.50777048250728       -0.08667779613866
C            1.24378090037318       -2.11359577941596       -0.03289331846364
C           -0.13366129800768       -1.84597089506742       -0.08972733843278
C           -0.97500716849597       -0.76587365302306       -0.03488760184948
C           -2.39570725094201       -0.99602347273605       -0.02850993453516
N           -3.05042832630085       -2.18195393759895       -0.14135420060019
C           -3.04456988092693        0.24071958405568        0.06848480207010
C           -4.42641962843693        0.41396598017384        0.13812891890827
N           -5.56996834669510        0.51941269952115        0.21138312034480
C           -2.06388257636707        1.25377708171489        0.10059722191665
C           -0.79555255402756        0.69817216558713        0.03543555117462
C            0.35191822103838        1.51745984199683       -0.00457585423063
C            0.30862332424088        2.89459174596954       -0.05916812486411
C            1.65152250130743        3.35776302276002       -0.05551029232587
N            2.04770485447762        4.63620137259189       -0.10357472975640
N            2.52759396556023        2.35575423598329        0.00783899938208
C            1.81500342733113        1.20404788185632        0.03059563772571
C            2.58563921573443        0.07130817628383        0.09737526090310
C            2.40939413554253       -1.32466180284329        0.08515863387197
N            3.57312388298626       -2.01811857589474        0.18640332648367
H           -0.67724095047714       -2.78485827864771       -0.18127193330076
H           -4.04024538106183       -2.17319280349361        0.04101936832844
H           -2.57006701713126       -3.04838111808055        0.02948810791965
H           -2.30017960020284        2.29734456065975        0.17521678302774
H           -0.55014064810040        3.53260074987542       -0.10872948970563
H            3.03114959524655        4.83915462706753       -0.11845561275523
H            1.37950318456371        5.38010598375780       -0.18450684093423
H            3.63405351236011        0.35336113816860        0.15054080541622
H            4.44868281150054       -1.52923442582352        0.23818973854137
H            3.57728602452796       -3.02374980926741        0.15480379640608
