27
 energy: -46.939527641198 gnorm: 0.000766057848 xtb: 6.6.1 (8d0f1dd)
N            4.81439397116338        0.40816600049303       -0.03303919068594
C            3.66567757367601        0.35516390966951       -0.02750637801951
C            2.25013929087079        0.27564729729205       -0.02272707235900
C            1.83506362587490       -1.05575245823213       -0.01522708201947
C            0.64828225511642       -1.76315333555534       -0.00809198709597
C            0.69144664878181       -3.17492522204488       -0.00286093898718
C           -0.59803362815784       -3.68297574687045        0.00375116579084
C           -1.49140486494688       -2.61746069124109        0.00318523610494
C           -0.77771396863907       -1.40946610668026       -0.00398011140811
C           -1.44614618924056       -0.19026564138102       -0.00526028426166
N           -2.77815390013788       -0.16039639879528        0.00131284419518
C           -3.10369246119072        1.14876238078732       -0.00188489677958
N           -4.37409502170113        1.55528556248540        0.00073972569731
N           -2.07337447928698        2.00488068349627       -0.01041462974581
C           -0.97391776749598        1.23054012294114       -0.01302346519095
C            0.24045888644661        1.88212376737832       -0.02183662257030
C            1.59715386707440        1.54089895753200       -0.02630849979649
N            2.43083383630741        2.61558243233644       -0.03533422882724
H            2.69230435249369       -1.72805609029122       -0.01528809407401
H            1.59713772837086       -3.75458385763375       -0.00405142560700
H           -0.86341211215983       -4.72475329644531        0.00854846250465
H           -2.56264591605147       -2.67239215298927        0.00741109228975
H           -4.57640349166184        2.53799088217298        0.00815765207571
H           -5.10752132422739        0.87073081811561        0.01714922932331
H            0.07779291340784        2.95675970335736       -0.02599887202896
H            3.42927964913072        2.49535975975190       -0.03909201679025
H            2.05202579678162        3.54538538345096       -0.03822090583353
