29
 energy: -50.348515096911 gnorm: 0.000986852621 xtb: 6.6.1 (8d0f1dd)
N            4.29791858944518        0.85245682322560        0.89822377485452
C            3.22513466609920        0.68695626659800        0.51848057461656
C            1.87722741833060        0.56012388873010        0.10060510020637
C            1.19354610148232        1.79293755180875       -0.10151060566648
N            1.94990008892518        2.90034467152803        0.12220384665738
C           -0.08194406631766        2.05883918013965       -0.61105079642479
C           -1.31151975819123        1.40771297579209       -0.64376219915180
N           -2.32678641309183        2.12530160198868       -1.19818188542567
C           -1.71311582478541        0.17251042867434       -0.06611498245512
C           -3.02607827556307       -0.11071399734229        0.33599700104898
N           -4.11942734280808        0.73221014898818        0.40250275759239
N           -3.18461476114425       -1.40897919182315        0.71177161575872
C           -2.03427712754395       -2.00301823907358        0.50908620693813
C           -1.02370067705043       -1.10188094564448        0.04818038983134
C            0.26187515513192       -1.51869172141657       -0.23791659088931
C            0.66176903306374       -2.85760693408500       -0.38668068585077
C            2.04116690713539       -2.85535739350525       -0.46498461090812
N            2.56844868892908       -1.62988047823443       -0.29651478619930
C            1.55672565883905       -0.76978936167196       -0.18879951243665
H            2.92150606278843        2.80917924094228        0.36648487983519
H            1.58245251814711        3.81482319761109       -0.06941998052780
H           -0.15927994430458        3.08078949948828       -0.97752564601608
H           -2.12276412541766        2.97006660608964       -1.70321513950246
H           -3.20420533655720        1.66621986429891       -1.37381170782285
H           -3.92542542943680        1.66914030704467        0.72767315717160
H           -4.88230786293978        0.29286795490205        0.89916140509307
H           -1.89982567428500       -3.03942962459631        0.75256196742318
H            0.01677274869886       -3.70656046669325       -0.49287786947272
H            2.69199758082427       -3.69311734776568       -0.64365463787659
