26
 energy: -47.208926294233 gnorm: 0.000595548207 xtb: 6.6.1 (8d0f1dd)
N            4.63023281976511       -0.96362791049925       -0.80009902755504
C            3.55945634533139       -0.64784881679009       -0.52459816109659
C            2.24431227047519       -0.29391335965723       -0.16623389536534
C            1.83064581727120        0.97832060343907       -0.45780957927520
C            0.65998474558311        1.69580603190385       -0.15643581144531
C            0.63915314592473        3.08989953142700       -0.23552273959093
N           -0.56632996098710        3.61913599442595        0.05555630446090
C           -1.38022587592973        2.60651010493987        0.25691017480276
C           -0.71745911135532        1.34391461304764        0.17364780466693
C           -1.40805994018499        0.14984889587658        0.18945761881767
N           -2.73686217407343        0.10199462199159        0.09848569065859
C           -3.06123711490966       -1.17448644344494       -0.18496136631043
N           -4.33684381170603       -1.51621601349376       -0.37963256019866
C           -1.93729391976496       -2.03684238534532       -0.23016657631697
C           -0.85096700356491       -1.25735676495878        0.10297576516635
N            0.32116049632866       -1.69928528724428        0.48005036164684
C            1.53959783611276       -1.31279384708915        0.61005025843838
N            2.30260314101765       -1.99968874940340        1.49254681106739
H            2.58680484659386        1.58972682641569       -0.94415395913651
H            1.46981882779074        3.73210719559144       -0.46901290644313
H           -2.42112444894389        2.74320841479627        0.47901662620635
H           -5.04253008901517       -0.80550708717455       -0.29375459369667
H           -4.58717793225312       -2.44401191974496       -0.67027367595711
H           -1.95421043641177       -3.09352621107987       -0.40309703605841
H            1.89600916304186       -2.78858497215439        1.96594754849854
H            3.30311270826350       -1.89729270817446        1.48459797771523
