29
 energy: -51.149353715120 gnorm: 0.000814741212 xtb: 6.6.1 (8d0f1dd)
N           -4.07625031634729       -2.02362565308365       -0.63726062733205
C           -2.94062521819422       -1.94887598373870       -0.47403720806218
C           -1.55363346576937       -1.91653288568829       -0.30868270560340
C           -0.72107770161029       -3.03985084948446       -0.42473344918184
C            0.60020823094702       -2.64958659702810       -0.25707639283450
C            0.66707933460225       -1.26004611941552       -0.11485275672731
C            1.88117593384827       -0.60830896364591        0.14881861255036
C            2.87906530078601       -1.50353264472294        0.60762570069877
N            3.69750646212759       -2.20003959457754        1.01685858669246
C            2.36245106912763        0.71007729724943       -0.09675404895192
N            3.69917409818261        0.87890303764356        0.08893476897222
C            1.71367472100354        1.82590480738811       -0.64328138305624
C            0.41501923993960        2.31034323297557       -0.62443613540008
N            0.20364583311950        3.48880775642392       -1.25647283504301
C           -0.71693776233316        1.81439213563561        0.09139393162945
C           -1.70251998183665        2.63195739734564        0.62155638341924
N           -2.72789906531845        1.92424134100070        1.15697576097228
C           -2.50920203222644        0.66622146936243        0.88328484877343
C           -1.23785168375553        0.46756897016034        0.24082998152223
C           -0.74615140434539       -0.77159908992046       -0.11473012130478
H           -1.06314605467773       -4.04003102406562       -0.62183754190654
H            1.44826912480010       -3.30745488278556       -0.29230296375466
H            4.27839679541242        0.11625563762258        0.39553915729787
H            4.12379302466978        1.77338398683928       -0.07451707881324
H            2.41612168219133        2.53118552018750       -1.08191043466521
H            0.94949999052948        3.96817530512754       -1.72894838570932
H           -0.71718217334509        3.88803805578581       -1.26904355099549
H           -1.69564540928453        3.70349287822400        0.71528577407876
H           -3.17492559924416       -0.10511626701579        1.21892236723503
