28
 energy: -51.445113575277 gnorm: 0.000335779206 xtb: 6.6.1 (8d0f1dd)
N           -3.64117419286098        2.22839942882098        0.00301957953388
C           -2.84611468025225        1.39921301960656       -0.00302599188587
C           -1.93993382053319        0.29820736736869       -0.00623590547428
C           -2.58486569776642       -0.97892680745215        0.00054533920942
N           -3.93809080200357       -0.92157779606315        0.05421807470561
C           -2.06841664047330       -2.27841441812224       -0.05783560830798
C           -0.81316171106442       -2.85204709797245       -0.08394053861553
C            0.49714134797189       -2.41124919461980       -0.03766735423698
C            1.55178017390488       -3.35299203066544       -0.02232283649686
N            2.74920643966861       -2.78793019805354        0.04920923624726
C            2.55055100064509       -1.46854310773220        0.07041129143272
C            1.18826926796500       -1.11831832512065        0.02026403757887
C            0.74113343696412        0.20244966114773        0.00401481760085
C            1.57159847063119        1.32597470785951        0.00616532839509
C            2.95361456789802        1.48604975964564        0.02082740846946
N            4.07020568288125        1.76750590531562        0.03304437023772
C            0.71109328303464        2.47793374381233       -0.02395965061756
N            1.10888473770691        3.74677718300582       -0.03799857369961
N           -0.57006765168941        2.12750812570381       -0.03751877830981
C           -0.63703237418686        0.78024680029759       -0.01934944165187
H           -4.48074153244269       -1.76708772638053        0.04995629162926
H           -4.41768789902601       -0.03735958441181        0.08520247258849
H           -2.86374132261158       -3.01787901552287       -0.07989619375405
H           -0.85961974655174       -3.93678739552246       -0.13493872975405
H            1.44932624198304       -4.42301053486909       -0.05325695319915
H            3.38986721232738       -0.80185944691020        0.12468584710865
H            0.41517750385151        4.47437269257414       -0.06183171026610
H            2.08909563303224        3.97292154426360       -0.02625974026847
