26
 energy: -47.213943157998 gnorm: 0.000573702091 xtb: 6.6.1 (8d0f1dd)
N           -4.55141624051346        0.53173971901947       -0.66474258422833
C           -3.42996321854269        0.58042754675833       -0.42078716390368
C           -2.05127868985014        0.65755123958867       -0.12320830211367
C           -1.47514743457950        1.89013343306509       -0.39571184672538
N           -0.37046928294861        2.43505769026667        0.04371986707150
C            0.83365399062440        2.09588855720186        0.36002827503592
N            1.52687581630783        2.96296078513141        1.12745256222176
C            1.55652027297789        0.93900632481440       -0.11045661658373
C            2.91107032680124        0.88323895640463       -0.39194321071015
N            3.37612728746303       -0.37065714153663       -0.60806226909012
C            2.35670267507133       -1.17905354488652       -0.39690129429524
N            2.38528148092410       -2.49947193749356       -0.49011557587467
C            1.10703599343671       -0.42688183939734       -0.09764818843962
C           -0.07039427944790       -1.05460836812784        0.20071148586258
N           -0.06187415424390       -2.41505303063057        0.42573040474265
C           -1.29498002348177       -2.76924417684325        0.70541655495984
C           -2.20380956819755       -1.69298683853586        0.62889213137887
C           -1.46839499210939       -0.56861115286418        0.31061136583032
H           -2.10309193210534        2.59634170238011       -0.93622281586510
H            2.48951703112149        2.78919820144330        1.35000369525349
H            1.07577400469599        3.79654648797279        1.46234906529974
H            3.58903375590067        1.71402484627444       -0.48485578238921
H            1.52838775224469       -2.96504292598632       -0.16933251978659
H            3.25220376788705       -2.96699298965129       -0.69226848838698
H           -1.52438294753663       -3.78976441420728        0.95953486743740
H           -3.26340908359840       -1.74647628695818        0.78401767549831
