28
 energy: -51.443501508984 gnorm: 0.000667465759 xtb: 6.6.1 (8d0f1dd)
N           -3.85795959425540        1.92906772642540        0.31420260351469
C           -2.71150975429264        1.82965497312860        0.25525696792068
C           -1.32188291425436        1.76699355581320        0.17978484606517
C           -0.50851783207356        2.87181731919220        0.41152952933155
C            0.82806716423969        2.46746532284615        0.42350664758918
C            0.90156081683539        1.08945562276229        0.27938034774231
C            2.12944422551070        0.43331637533960        0.03799224665528
C            3.19975062199271        1.25824221963181       -0.35260680407243
N            4.10049019464601        1.89372089293996       -0.68390368999826
C            2.43567508632020       -0.95001108056876        0.10138500811987
N            3.52428862692444       -1.39738064868422       -0.56354413984948
N            1.86750537068093       -1.83499195708139        0.90314066998012
C            0.67974077560533       -2.24021124767441        1.15557810802084
C           -0.50429356411807       -1.94873503794756        0.44887584412233
C           -1.57606234216538       -2.82304798513337        0.30338165884593
N           -2.58228180423996       -2.31527505931958       -0.42942161503947
C           -2.27052732346341       -1.05403679682306       -0.68243748080499
N           -2.98871149586246       -0.33220067546166       -1.54924582398326
C           -0.95990012512459       -0.68454136449286       -0.11079031422351
C           -0.49643445109440        0.59003296867585        0.10546591445101
H           -0.86624315839895        3.87212701174229        0.57704881367329
H            1.67303016341514        3.11762483456162        0.55025604302979
H            3.83724806674979       -2.33937886265065       -0.40383408740998
H            4.14328516216924       -0.74258444134391       -1.01203564847920
H            0.61541860698795       -2.98495777165218        1.94519676786798
H           -1.63073219252910       -3.83364793799810        0.66531809949988
H           -3.87292410567348       -0.72537528963900       -1.82881820058056
H           -2.87225133263782        0.66428993261167       -1.62029614379778
