29
 energy: -50.371855261352 gnorm: 0.000413336875 xtb: 6.6.1 (8d0f1dd)
N            4.53914356153093        1.02302122230905        0.32462573468381
C            3.51988629568351        0.48736201467508        0.25643529054799
C            2.30722004076100       -0.18058783654484        0.16787619242197
C            2.14860060645208       -1.57894830479388        0.14234136695098
N            3.14575999259026       -2.48043577711501        0.20611993968097
C            0.77587875524507       -1.87236687709195        0.01128738422017
C            0.03323884458481       -0.70062426586846       -0.00106563470211
C           -1.36690980333789       -0.66513573806673       -0.04905789937244
C           -2.19138414041646       -1.79870346087203       -0.28251801320362
N           -1.83821083379695       -3.00664404197276       -0.82407728442764
N           -3.47053053268855       -1.59524616775056        0.08882011220065
C           -3.52901404076419       -0.37538591049470        0.60328583978664
C           -2.30513819602218        0.31616782835901        0.50196492223079
C           -2.16746694335819        1.65160609984461        0.83707804053556
N           -1.38753335519465        2.55572813561029        0.31628263457980
C           -0.25173936185409        2.59333075948295       -0.31595087702291
N           -0.08337914998410        3.64862149850636       -1.14718836160128
C            0.90447759516059        1.77164548532943       -0.11693678527794
C            1.02047913760201        0.42560264142267        0.06942180638731
H            2.93311419474766       -3.45794874751746        0.29603589673207
H            4.08092179380728       -2.16821343140812        0.40397759087758
H            0.37577399725704       -2.86683149704390        0.03746817985550
H           -2.64110771979514       -3.56720450743403       -1.07040634165934
H           -1.10703098250171       -2.98474807642542       -1.51870404159640
H           -4.45952832935288        0.02489466010434        0.96296034258494
H           -2.92380150097735        2.07071286183477        1.49753804802363
H            0.81471957940928        3.84702471139473       -1.54900671801054
H           -0.83311946336629        4.30854347495704       -1.25879725376722
H            1.84576835287955        2.30387018816880       -0.21525067115878
