33
 energy: -53.231473430150 gnorm: 0.000786543409 xtb: 6.6.1 (8d0f1dd)
N           -4.96377634228551        1.54107036993221       -0.40992386697921
C           -3.90888648646813        1.12541513736523       -0.20191037754128
C           -2.64102745864597        0.60462633012067        0.02366249992441
C           -2.35940875729458       -0.75202148710079        0.41012826742254
N           -3.34774336548472       -1.63961227022362        0.75108676663964
C           -0.98666545631098       -0.95906076745506        0.39760035662111
C           -0.43651763877823       -2.19469808132736        0.84859326546843
C            0.69729786337996       -2.86575278785933        0.56298341569839
C            1.79797378427426       -2.57937438228552       -0.32060800806186
N            2.41348967627529       -3.72772911638150       -0.78345124098119
C            2.39415936026062       -1.39193691780069       -0.63926835751882
C            2.19664971440699       -0.05583217029422       -0.21108082302551
C            3.22258607995109        0.85286002752549       -0.25419466354969
C            2.74616475897597        2.13527186762997        0.16253994697705
N            3.52675833787423        3.24395367899091        0.28664377255836
C            1.38184780951954        2.05201082651108        0.34637748795254
C            0.96734089382805        0.71223075767347        0.13262951385728
C           -0.35347862488685        0.31853133912246        0.09559192637810
C           -1.43148324317369        1.26188446874471       -0.14314687077324
N           -1.29595628659548        2.55723804776889       -0.55189941204523
H           -3.14037142183264       -2.62020290913142        0.66553778168472
H           -4.28432634578377       -1.37213279546418        0.49359409970973
H           -1.11984505158270       -2.73246246109994        1.50118591861650
H            0.78357729215739       -3.85157903649771        1.00855627335002
H            1.87118151873689       -4.57477250991066       -0.79830953128895
H            3.08343857127773       -3.62651742041262       -1.52763583582950
H            3.29567489967846       -1.49974102035144       -1.23821048680189
H            4.24402103726977        0.63921788649925       -0.51346564013121
H            4.52133798810931        3.10801553063496        0.35620911140908
H            3.14839779975976        4.02475011821328        0.79693253867210
H            0.76282971699035        2.83352613190869        0.74347720300802
H           -0.41770222277245        2.79920569331366       -0.98519136883957
H           -2.12146650032924        2.97298866733994       -0.95662312518054
