31
 energy: -49.788670113675 gnorm: 0.000854540229 xtb: 6.6.1 (8d0f1dd)
N           -3.85061826785371        2.38664403106984        0.95360566408010
C           -2.84280484794383        2.02733117822172        0.53136111662940
C           -1.58477371866597        1.61206703811817        0.03814436296690
C           -0.74765652845903        2.65878264882941       -0.27206804343042
C            0.55552391568111        2.74280287386136       -0.78080343925251
C            1.61726856050855        1.87337993314609       -0.78666365091907
C            1.86469610887869        0.60040610674473       -0.25554072845408
C            3.18222342189837        0.14696166553124       -0.08177806812565
N            4.34006275987015        0.82080130219431       -0.36594196551423
C            3.17214343796695       -1.16646298686965        0.44514994366284
C            1.87202446122745       -1.59400665760719        0.54340167550701
N            1.47618023428580       -2.80644773376958        1.05531380382339
C            0.98735648465678       -0.53758943857083        0.08002144106516
C           -0.34978308646352       -0.75219554980741       -0.14192828502168
C           -0.91452980730091       -2.05636207574867       -0.29124438885504
C           -2.27474300364405       -1.94714154348241       -0.43034298113814
N           -3.17910394691529       -2.94295400594555       -0.61394758587403
C           -2.63044302687626       -0.55922246994227       -0.29095647449846
C           -1.49790270809482        0.19368572065766       -0.17393424050246
H           -1.21363542724994        3.63195109729397       -0.13667702920069
H            0.79151709751765        3.72947120810979       -1.16528795078223
H            2.51388145587984        2.31713745086614       -1.21143398634070
H            5.17989619232057        0.44922121349387        0.04565194282683
H            4.29861656782426        1.82481555158520       -0.41658093141214
H            4.04600476577507       -1.72135587696373        0.73653951727726
H            0.54899998355133       -2.82412635272337        1.45478569322200
H            2.17900065749311       -3.27297192169949        1.60924467566360
H           -0.34752830079809       -2.95332933537417       -0.44433323824564
H           -2.84301352508795       -3.84836949973874       -0.89385564194643
H           -4.10753420918947       -2.69051000498155       -0.90564093360951
H           -3.63967291669300       -0.18973011149840       -0.30509599100183
