32
 energy: -53.524253224597 gnorm: 0.000954453184 xtb: 6.6.1 (8d0f1dd)
N           -3.96238486390093       -1.23874350031316       -0.37459492487535
C           -3.06136544907406       -0.53522011008045       -0.19851176313136
C           -2.05856142925291        0.40325273804259       -0.01761579440665
C           -2.31612129944650        1.78220849570644       -0.22950935817981
N           -3.52912470620861        2.29683936293947       -0.50096138654892
C           -1.11929534969242        2.50502090200300       -0.08633386657022
C           -0.09064414758220        1.61615090351841        0.16622072254344
N            1.08519698443128        1.99168937620795        0.62991850853064
C            2.31876361477781        1.67019995380481        0.43480727165564
N            3.23571201027829        2.34576623119559        1.18677480824759
C            2.81973944408309        0.85521214148792       -0.62817472597121
C            2.35708638878832       -0.38208767886727       -0.98042557552557
N            3.02501670488779       -1.04513747796033       -1.97992205153438
C            1.40895512305152       -1.20577300434726       -0.26343422193032
C            1.60407094903059       -2.56857869349258       -0.16137309160428
C            0.50883542666130       -3.17643016121666        0.48967019778531
C           -0.44616769185490       -2.21868972872657        0.71658026452647
N           -1.56830445823950       -2.38643497914357        1.48949893792358
C            0.06767893160477       -0.93394636784845        0.25601387654705
C           -0.65787078844739        0.23245608323520        0.16288612677054
H           -4.30996859459881        1.67782129879576       -0.63845111245775
H           -3.62299640545716        3.26420781665184       -0.75242602172699
H           -1.02307046638729        3.57184007145093       -0.14666688888251
H            2.88596654956716        2.85819477177089        1.97862327090400
H            4.17490972971270        1.99280798605153        1.23623270293301
H            3.70339730064024        1.22600606236253       -1.13187967757962
H            3.63260374959062       -0.51338061691159       -2.57941824889433
H            2.58886993225733       -1.85845733399188       -2.37642521638793
H            2.48612185080711       -3.09600172618121       -0.47984702631240
H            0.44447326178075       -4.21212030252925        0.76769902861451
H           -2.34306029511938       -1.76378569480902        1.32560814591446
H           -1.84394927328752       -3.34747422570623        1.61935271882387
