28
 energy: -50.643150920550 gnorm: 0.000835258262 xtb: 6.6.1 (8d0f1dd)
N           -3.67292070301441       -2.28756723737605        0.75313410466720
C           -2.69496927401423       -1.73671091128757        0.49142285701558
C           -1.51501328896356       -1.06514615443966        0.15105481024814
C           -0.58335010333626       -1.83250310926335       -0.65440786856502
N           -1.10459500156050       -2.57305287981844       -1.65637422107215
N            0.67211436770337       -1.97346041530358       -0.40573483654962
C            1.67362139596291       -1.35585526261302        0.14174860348732
N            2.73279854757678       -1.99578068701424        0.61358815364933
C            3.69078066742256       -1.05816285409105        0.77603352578576
C            3.29973821003282        0.22125469837162        0.41517126453278
C            1.94399437349215        0.13253743730896        0.07662345349128
C            1.02873306206344        1.14255147353385       -0.12307869889202
C            1.41686299842752        2.49199534489665       -0.43416874164082
N            0.39475727564700        3.29295559489910       -0.55156780085536
C           -0.71664684394948        2.55617715458990       -0.24027148436340
N           -1.93030590090729        3.19374571149358       -0.22269132746450
C           -0.41361177626346        1.21184071755077        0.01098091599248
C           -1.39163566657974        0.27900697613494        0.49727992681508
N           -2.39474709535032        0.82549232305675        1.22896985233634
H           -0.51019156297843       -3.24682775749480       -2.10987416767331
H           -2.10204614068658       -2.68236348003282       -1.72851819243357
H            4.65037900378130       -1.35349858426882        1.16432876320884
H            3.89463912460578        1.11031450781284        0.47703061160984
H            2.41566690278704        2.82651816172739       -0.64030126983207
H           -2.74014138197803        2.64265256039830       -0.46449038289917
H           -1.89414531030851        4.10502319693467       -0.65485216952000
H           -3.10066325913062        0.22722213276273        1.62517101825991
H           -2.29718458608105        1.76288487413141        1.57811996636153
