25
 energy: -47.502630570232 gnorm: 0.000647026474 xtb: 6.6.1 (8d0f1dd)
N           -5.05058395692101        0.20916680296295        0.74086407781910
C           -3.97077065794368       -0.10097636060314        0.49776622652974
C           -2.66717364156550       -0.50670141894073        0.21764217230726
C           -2.19811512428738       -1.85561887511855        0.18872800544617
N           -0.93327713506843       -1.95556191453736       -0.11579885542618
C           -0.44200744020148       -0.66505835618040       -0.23740833861533
C            0.90027889328864       -0.41607251287546       -0.19532819060474
C            1.88655844756729       -1.52968060643099       -0.19626941544071
N            1.52508588529662       -2.78613694185390       -0.36021351701175
N            3.12390113087463       -1.10344804133017       -0.04360703910492
C            3.03987457026284        0.24251660845005        0.13490015512901
N            4.15865269643486        0.94483561459429        0.33537500046700
C            1.71777102150401        0.74575746763969        0.04025911363121
C            1.35934580298828        2.06410256824313        0.40962203291023
N            0.32880731835841        2.75678149303579        0.09042582775493
C           -0.71819526465873        2.44890177458540       -0.67607732255528
N           -1.60248649764564        1.53463144860836       -0.55900587329088
C           -1.57520376397520        0.28603763790939       -0.13344327847336
H           -2.79514378457864       -2.73111917560340        0.37669277502959
H            2.21652730255463       -3.51614050451264       -0.34325155225041
H            0.50735983671365       -2.94303210112944       -0.35571825566492
H            5.02752296667338        0.44534042929160        0.40338309539324
H            4.13039818115739        1.93164018755993        0.51783142715399
H            2.08016096132282        2.60116460714284        1.02630982175910
H           -0.94711451305350        3.21902599958250       -1.41357254008710
