26
 energy: -47.209465796706 gnorm: 0.000627810785 xtb: 6.6.1 (8d0f1dd)
N           -5.00852087505013       -0.41761526228121        0.13321390466012
C           -3.87802389557751       -0.21579336003480        0.06491732875492
C           -2.50174127679668       -0.00128267420157       -0.00115532537011
C           -1.85245418490964        1.24115258936966       -0.23398022785537
C           -0.48904507155247        1.07590578089675       -0.13227540806679
C            0.45228162459871        2.14624909151912       -0.34406974422693
N            0.14094910010667        3.07480739676878       -1.26421568800185
N            1.47656031329552        2.38944153064662        0.42701602634410
C            2.25488961409656        1.60211985724403        1.11766030321402
N            2.78992176176583        0.48741973514923        0.73142161809500
C            2.38925450215777       -0.51825307864650        0.01487920138712
N            3.23039421257451       -1.40147978738930       -0.50304886678004
C            2.49652061914128       -2.48292713704781       -0.81663733117287
C            1.14921772421728       -2.36880609072598       -0.50573450718543
C            0.95508972774109       -1.05190271774234       -0.06286695964347
C           -0.22545434856963       -0.35116590379790        0.08565913483362
C           -1.52258148163603       -0.97919193120603        0.17039650705200
N           -1.75414310719845       -2.29984830833343        0.39925756103034
H           -2.37372007472322        2.16744468641383       -0.39729133544297
H           -0.72478472417086        3.02005293558487       -1.76992363436092
H            0.71877802035569        3.89345721559529       -1.34854026457221
H            2.66553639774344        2.02939445981258        2.02909346341987
H            2.97641224137519       -3.32901268984155       -1.27802083232710
H            0.39968574538683       -3.10014661846703       -0.73298974133790
H           -2.70023118145752       -2.55427560495935        0.63673651961056
H           -1.02282758891276       -2.83752160122596        0.83389763824211
