25
 energy: -43.462943649969 gnorm: 0.000512657321 xtb: 6.6.1 (8d0f1dd)
N            4.17779083533621       -0.44020999130862       -0.24495381638285
C            3.06503142849454       -0.16907350425058       -0.14239794794179
C            1.69919225559062        0.20087716064148       -0.02859681244582
C            1.50657340506299        1.60331774571451        0.00098506189090
N            2.64534782798503        2.34214012286518       -0.08483146830221
C            0.34616758967399        2.40820353255524        0.13593304183615
C           -1.00680085145793        2.22189170637273        0.13638849620768
C           -1.87262579869550        1.13001002177002        0.01144175978907
C           -3.25070301959188        1.29925529640754       -0.04896736962997
N           -3.92558293005781        0.12767421148594       -0.15381031100805
C           -3.03459746567797       -0.82821431670886       -0.14185235388037
C           -1.68955066922007       -0.32365600999092       -0.04527537055953
C           -0.61534839808956       -1.16773301750203        0.02096262738345
N           -0.85845800907487       -2.50063652357273        0.05079387832956
C            0.30808229606133       -3.11263880514105        0.10883315396175
C            1.39524367730895       -2.22426002525256        0.09888291750702
C            0.87231606613986       -0.93860725042923        0.04899778648714
H            3.54489403713943        1.90138355441451       -0.17916322686307
H            2.60189518210431        3.34516974542414       -0.07628909171326
H            0.62024955074886        3.45536410821781        0.22923787717795
H           -1.56265808020748        3.15032293523122        0.23397476064934
H           -3.79065652847664        2.22888612871432       -0.02885944714740
H           -3.29780370363021       -1.86586271351036       -0.20533345285860
H            0.35670365611851       -4.18651576468753        0.15890736728958
H            2.42938386111468       -2.50391904786064        0.13517088012320
