28
 energy: -52.229900556219 gnorm: 0.000570774248 xtb: 6.6.1 (8d0f1dd)
N            6.00930299726099        0.45252216791608        0.59036557185423
C            4.87577992099705        0.38473928011139        0.42465342063621
C            3.49080725439437        0.30153409126840        0.22206987016744
C            2.63876732597296        1.37435473113441       -0.06247647832064
C            1.31785257193189        0.90357490505582       -0.13666600812062
C            0.29461712392375        1.81090365515262       -0.35364670434933
C           -1.09143403422095        1.83727276041378       -0.22645400164985
C           -1.59337268455927        3.14733337827000       -0.46006263954499
N           -1.97872263702456        4.20865810849748       -0.66620715024511
C           -2.09437331631239        0.90394064810246        0.15152802297607
N           -3.28442332140117        1.44066590909878        0.49763280708536
C           -2.04898486473122       -0.51922337884850        0.13405551698424
C           -3.31641926562390       -1.14009107387010        0.35291726288979
N           -4.36145780388476       -1.56319704434525        0.56605686308295
C           -1.08649106734308       -1.48807023880576       -0.11716516030272
N           -1.57763194634518       -2.73395158841765       -0.25660005775326
C           -0.54621477871757       -3.56176676006826       -0.38145348357498
C            0.68143716161594       -2.90543489151280       -0.27658050278849
C            0.41086750942158       -1.54606964399202       -0.13476098132223
C            1.38484499740558       -0.56140517467529        0.03955232884272
C            2.72878713213407       -0.87483048589047        0.26579533479030
H            2.94147184607931        2.40049055708989       -0.16027230112410
H            0.68487309591931        2.79663651070737       -0.60164335337436
H           -3.42551190769692        2.43727322207965        0.45700744496269
H           -4.07306951524981        0.84479639686107        0.69338515948747
H           -0.71383058030001       -4.61027176797884       -0.55110401005095
H            1.64429882926341       -3.36771804378864       -0.35365752502690
H            3.12687212799049       -1.85314580596559        0.45331912028909
