26
 energy: -47.209927183287 gnorm: 0.000861274216 xtb: 6.6.1 (8d0f1dd)
N            3.43683500647262       -2.26346997925881        0.38818147206758
C            2.41341540232109       -1.74492205983440        0.32726548957384
C            1.11531569497113       -1.20016597497801        0.23219581957209
C            0.06840249188136       -2.17643719261142        0.00414886351578
N            0.40770402709689       -3.25020097654271       -0.73865101979823
N           -1.10119604680917       -2.19558119831468        0.55702061575633
C           -2.05659081788976       -1.38569163077576        0.90039837442788
C           -2.35158027733211       -0.13915088681376        0.37327260667238
C           -3.66157004410072        0.38381059315047        0.26765325581164
N           -3.68401669518333        1.55458535859040       -0.34906376883340
C           -2.40826481245643        1.88492098541028       -0.59820354644630
C           -1.50051745374322        0.89337830325720       -0.20480607203570
C           -0.10866994989131        1.10743945950592       -0.10214171376756
C            0.50645449672375        2.32805026824304       -0.24598883014297
C            1.88665764847310        2.14264591896644        0.06301048462411
N            2.82813871049983        3.08861777444648        0.08375511940216
N            2.17304690377786        0.87221897883925        0.35211188223460
C            1.02703706596936        0.17634333607646        0.23131051180599
H           -0.24946822041323       -4.00668849772625       -0.83013475955560
H            1.36656440730874       -3.39514548869006       -1.00697368939579
H           -2.78721871404012       -1.83605197579987        1.56848603655142
H           -4.57043135052094       -0.10612612271897        0.56678350735611
H           -2.18320717059824        2.82517177066173       -1.06626490811216
H            0.04990936011480        3.26842411841668       -0.47981116058436
H            3.76414137952331        2.83054889348058        0.34393685888968
H            2.61209547494447        4.04075401342789       -0.14929760408942
